# vtk DataFile Version 5.1
vtk output
ASCII
DATASET POLYDATA
POINTS 1082 float
-12.6494 17.7375 13.7344 -15.6298 11.7839 18.0496 -11.2045 16.1288 18.1407 
-16.3012 17.7613 -55.2621 -13.4469 15.4188 -55.978 -12.7169 17.0636 -55.6646 
-11.3859 13.6943 -56.0479 -12.4729 12.627 -56.0703 -10.5972 15.0001 -55.8608 
-10.1603 16.456 -55.5218 -9.57982 12.1426 -55.5594 -11.0178 10.7307 -55.589 
-8.5365 13.87 -55.3119 -7.95849 15.7959 -54.8634 -7.70973 10.5097 -54.6996 
-9.48911 8.76255 -54.7362 -6.41873 12.6471 -54.3934 -5.70346 15.0303 -53.8384 
-5.78815 8.80656 -53.4742 -7.89697 6.73588 -53.5177 -4.25804 11.3398 -53.1114 
-3.41039 14.1643 -52.4536 -3.82766 7.04428 -51.8904 -6.25189 4.66404 -51.9403 
-2.06883 9.95642 -51.4733 -1.09436 13.2033 -50.7172 -1.84169 5.23506 -49.9599 
-4.56507 2.5611 -50.0159 0.134237 8.50649 -49.4913 1.22893 12.154 -48.6419 
0.156575 3.39087 -47.6956 -2.84771 0.440988 -47.7575 2.33638 6.99979 -47.1787 
3.54401 11.0236 -46.2416 2.15386 1.52385 -45.1114 -1.11128 -1.68204 -45.1786 
4.52287 5.44607 -44.5496 5.83528 9.81925 -43.5312 4.13676 -0.353339 -42.2258 
0.632549 -3.7938 -42.2979 6.67908 3.85611 -41.6228 8.08758 8.54928 -40.5299 
6.09197 -2.22812 -39.058 2.37221 -5.8803 -39.1346 8.79075 2.24018 -38.418 
10.286 7.22218 -37.2578 8.00628 -4.08789 -35.6285 4.09595 -7.92734 -35.709 
10.8434 0.609387 -34.9557 12.4153 5.84669 -33.736 9.86722 -5.9205 -31.9607 
5.79231 -9.9214 -32.0446 12.8237 -1.02554 -31.2596 14.4616 4.4321 -29.9886 
11.6621 -7.71345 -28.0796 7.44995 -11.8491 -28.1663 14.7182 -2.65356 -27.3548 
16.4114 2.98792 -26.0411 13.3788 -9.45465 -24.0101 9.05766 -13.6975 -24.099 
16.5141 -4.26378 -23.2665 18.251 1.5237 -21.9188 15.0063 -11.1328 -19.7801 
10.6048 -15.4543 -19.8707 18.1995 -5.84564 -19.0228 19.9688 0.0492916 -17.65 
16.5333 -12.7365 -15.418 12.0812 -17.1078 -15.5097 19.7635 -7.3883 -14.6519 
21.5531 -1.42545 -13.2634 17.9496 -14.2548 -10.9525 13.4765 -18.6466 -11.0446 
21.1949 -8.88153 -10.1829 22.9929 -2.89063 -8.78779 19.2459 -15.6779 -6.4139 
14.7817 -20.0608 -6.50576 22.4847 -10.3154 -5.64579 24.279 -4.33648 -4.25343 
20.4135 -16.9961 -1.83239 15.9883 -21.341 -1.92349 23.6242 -11.6802 -1.07093 
25.403 -5.75336 0.309268 21.4444 -18.2005 2.76142 17.0876 -22.4782 2.67174 
24.6053 -12.9668 3.51111 26.3566 -7.13168 4.86996 22.3319 -19.2832 7.33681 
18.0728 -23.4651 7.24909 25.4222 -14.1668 8.06965 27.1341 -8.46235 9.3981 
23.0702 -20.237 11.8631 18.9371 -24.2952 11.778 26.069 -15.2721 12.5742 
27.7302 -9.73644 13.8634 -12.8938 18.8324 -55.044 -10.1167 17.9657 -55.0494 
-10.4573 19.4259 -54.4797 -11.1588 20.7378 -53.8511 -7.90087 17.7931 -54.2386 
-8.35133 19.7248 -53.4848 -9.2794 21.4603 -52.6533 -5.6322 17.5016 -53.0652 
-6.18961 19.8919 -52.1325 -7.33797 22.0394 -51.1035 -3.32587 17.0931 -51.5372 
-3.98655 19.926 -50.4319 -5.34749 22.4713 -49.2124 -0.997272 16.5701 -49.6637 
-1.75663 19.8266 -48.3931 -3.32117 22.7524 -46.9912 1.33804 15.9364 -47.4584 
0.484892 19.5947 -46.0309 -1.2727 22.8816 -44.4561 3.66437 15.1961 -44.9361 
2.72318 19.2319 -43.3613 0.784321 22.8579 -41.624 5.96616 14.354 -42.1123 
4.94328 18.7402 -40.4009 2.83604 22.6808 -38.5127 8.22798 13.4159 -39.0071 
7.13036 18.1232 -37.1704 4.86879 22.3522 -35.1441 10.435 12.3883 -35.6414 
9.26975 17.3851 -33.6917 6.86909 21.8744 -31.5407 12.5719 11.2776 -32.0368 
11.3469 16.5304 -29.9871 8.8233 21.2498 -27.7259 14.6249 10.0914 -28.2179 
13.3484 15.5653 -26.082 10.7185 20.4832 -23.7257 16.5801 8.8379 -24.2107 
15.2606 14.4962 -22.0028 12.5421 19.5798 -19.5671 18.4242 7.52507 -20.041 
17.0704 13.3299 -17.776 14.2817 18.5451 -15.2772 20.1451 6.16209 -15.7374 
18.7664 12.0746 -13.4304 15.9258 17.3865 -10.8852 21.7314 4.75777 -11.3287 
20.3368 10.7385 -8.99507 17.4635 16.1117 -6.42053 23.1721 3.32168 -6.844 
21.7709 9.33044 -4.49944 18.8841 14.7289 -1.9128 24.458 1.86334 -2.31359 
23.0595 7.86007 0.0262756 20.1785 13.2476 2.60772 25.5802 0.392531 2.23228 
24.194 6.33713 4.55178 21.3381 11.6779 7.11078 26.5311 -1.08087 6.76321 
25.1664 4.77173 9.04681 22.3546 10.0299 11.5662 27.3048 -2.54708 11.2489 
25.9705 3.1744 13.4814 23.2218 8.31483 15.9444 27.8959 -3.99624 15.6594 
26.6012 1.55594 17.8258 23.9338 6.54421 20.2159 -13.9223 20.2496 -54.2851 
-15.53 20.9397 -53.589 -12.1842 21.8055 -53.2054 -13.4544 22.5648 -52.5867 
-14.8835 22.9642 -52.0368 -10.6359 22.8728 -51.7991 -12.3163 23.8772 -50.9806 
-14.2068 24.4056 -50.2531 -9.01654 23.7872 -50.0466 -11.0958 25.0301 -49.0338 
-13.4351 25.684 -48.1336 -7.33695 24.5426 -47.9598 -9.80122 26.0157 -46.7594 
-12.5737 26.7907 -45.6925 -5.60804 25.1336 -45.5513 -8.4409 26.8269 -44.1714 
-11.6279 27.7178 -42.945 -3.84178 25.5566 -42.8385 -7.02414 27.4589 -41.2884 
-10.6045 28.4597 -39.9106 -2.04985 25.8088 -39.8396 -5.56052 27.9074 -38.1295 
-9.5102 29.0114 -36.6096 -0.244098 25.888 -36.5733 -4.05954 28.1688 -34.7148 
-8.35214 29.3686 -33.063 1.56328 25.7942 -33.0628 -2.53157 28.2418 -31.0682 
-7.13827 29.5295 -29.2955 3.36017 25.5281 -29.3313 -0.98649 28.1263 -27.2141 
-5.87669 29.4932 -25.3322 5.13446 25.0908 -25.4033 0.565056 27.8222 -23.1775 
-4.57575 29.2592 -21.1992 6.87458 24.4858 -21.3053 2.11288 27.3321 -18.9859 
-3.24419 28.8295 -16.9244 8.56868 23.7173 -17.0652 3.64654 26.6595 -14.6676 
-1.89099 28.2074 -12.5367 10.2053 22.7896 -12.7106 5.15574 25.8081 -10.2509 
-0.525103 27.396 -8.06481 11.7738 21.7098 -8.27096 6.63061 24.7841 -5.76573 
0.844303 26.4015 -3.53904 13.2636 20.4848 -3.77613 8.06105 23.5947 -1.24197 
2.20807 25.2307 1.01038 14.6645 19.1226 0.74402 9.43754 22.247 3.29007 
3.55703 23.8907 5.55301 15.9674 17.6325 5.2592 10.7509 20.7507 7.80015 
4.8822 22.391 10.0585 17.1636 16.0246 9.73921 11.9924 19.1156 12.2581 
6.17477 20.7418 14.4968 18.2447 14.3093 14.154 13.1536 17.3525 16.6338 
7.42593 18.9535 18.8379 19.2039 12.4984 18.4742 14.2269 15.4735 20.8985 
8.62749 17.0385 23.0532 20.0348 10.6039 22.6708 15.205 13.491 25.0234 
9.77136 15.0097 27.1143 -17.2867 20.7098 -53.1448 -16.3772 22.9645 -51.5961 
-17.8331 22.5781 -51.2908 -19.1525 21.8311 -51.1417 -16.1828 24.4061 -49.6701 
-18.1087 23.8948 -49.2663 -19.8542 22.9066 -49.069 -15.8802 25.6845 -47.4122 
-18.2634 25.0519 -46.9125 -20.4233 23.8291 -46.6684 -15.4716 26.7913 -44.8375 
-18.296 26.0415 -44.2453 -20.8558 24.5923 -43.956 -14.9591 27.7184 -41.9621 
-18.206 26.8566 -41.2814 -21.1486 25.1907 -40.9488 -14.3468 28.4604 -38.8064 
-17.9943 27.4922 -38.0417 -21.3 25.6207 -37.6681 -13.6386 29.0123 -35.3915 
-17.6624 27.9442 -34.5479 -21.3092 25.8796 -34.1357 -12.839 29.3695 -31.7391 
-17.212 28.2087 -30.8223 -21.1754 25.9649 -30.3743 -11.9534 29.5305 -27.8748 
-16.6467 28.2848 -26.8907 -20.9 25.8767 -26.41 -10.9882 29.4942 -23.8241 
-15.9701 28.1719 -22.7795 -20.4852 25.6156 -22.2693 -9.94921 29.2602 -19.6138 
-15.1864 27.8701 -18.5157 -19.9329 25.1829 -17.9793 -8.8437 28.8306 -15.2723 
-14.3013 27.382 -14.128 -19.2474 24.5817 -13.569 -7.67913 28.2085 -10.8289 
-13.3206 26.7111 -9.64607 -18.4334 23.8164 -9.06824 -6.46303 27.3972 -6.31286 
-12.2505 25.8609 -5.09941 -17.4958 22.8914 -4.50659 -5.20388 26.4027 -1.75456 
-11.0987 24.8381 -0.51857 -16.4412 21.8134 0.0852054 -3.90979 25.2319 2.81541 
-9.87267 23.6492 4.06565 -15.2768 20.5896 4.6764 -2.58961 23.892 7.36654 
-8.58044 22.3018 8.62263 -14.0099 19.2278 9.23625 -1.25208 22.3924 11.8684 
-7.23091 20.8054 13.122 0.0938386 20.743 16.2909 -5.83302 19.1699 17.5337 
1.43909 18.9547 20.6043 -4.39605 17.4059 21.8278 -9.6844 14.4119 22.4255 
2.77475 17.0398 24.7801 -2.92966 15.5256 25.9761 -8.09963 12.5987 26.5604 
4.09184 15.0109 28.7901 -1.44377 13.5416 29.9507 -6.4607 10.7013 30.5178 
-18.7199 19.6292 -53.0693 -19.4499 17.9844 -53.3826 -20.2395 20.7638 -51.1641 
-21.0282 19.458 -51.3511 -21.4651 18.0021 -51.6902 -21.2922 21.4947 -49.0986 
-22.3356 19.7673 -49.3461 -22.9136 17.8413 -49.7946 -22.2026 22.082 -46.7051 
-23.4936 19.9445 -47.0112 -24.2089 17.5613 -47.5662 -22.9647 22.5217 -43.9994 
-24.4948 19.9884 -44.3623 -25.3424 17.1639 -45.02 -23.5728 22.8104 -40.9987 
-25.3316 19.8983 -41.4159 -26.3061 16.6515 -42.1719 -24.0234 22.9467 -37.7241 
-25.9993 19.6753 -38.1927 -27.094 16.0278 -39.0421 -24.3135 22.9297 -34.1976 
-26.4933 19.3208 -34.7145 -27.7009 15.297 -35.6515 -24.4405 22.759 -30.4416 
-26.8095 18.8368 -31.0034 -28.1219 14.4636 -32.0218 -24.4042 22.4362 -26.4821 
-26.9466 18.2267 -27.0851 -28.3551 13.5336 -28.178 -24.2049 21.9634 -22.3458 
-26.9037 17.4951 -22.9859 -28.3989 12.5131 -24.146 -23.8433 21.3434 -18.0598 
-26.6804 16.6461 -18.7326 -28.2523 11.4088 -19.9522 -23.3223 20.5808 -13.6529 
-26.2788 15.6858 -14.3541 -27.9167 10.2282 -15.625 -22.6456 19.6807 -9.15495 
-25.7017 14.6208 -9.87972 -27.3948 8.97933 -11.1935 -21.8169 18.6486 -4.59558 
-24.9522 13.4577 -5.33909 -26.6891 7.6702 -6.68683 -20.8426 17.4919 -0.00538917 
-24.0359 12.2047 -0.762735 -25.8051 6.30981 -2.13549 -19.7289 16.2183 4.58475 
-22.9591 10.8701 3.81868 -24.7487 4.90728 2.43011 -18.483 14.836 9.14417 
-21.7284 9.46275 8.37452 -23.5264 3.47185 6.97941 -17.1136 13.3546 13.6425 
-20.3524 7.99209 12.8744 -22.1467 2.01319 11.482 -18.8404 6.46797 17.2882 
-20.6192 0.541116 15.908 -14.0412 10.1342 22.3358 -17.2021 4.90056 21.5861 
-18.9534 -0.934609 20.2273 -12.3588 8.41673 26.4727 -15.449 3.3004 25.7399 
-17.1609 -2.40409 24.4114 -10.5938 6.64312 30.4326 -13.5926 1.67817 29.7215 
-15.2538 -3.85748 28.4323 -19.273 16.2156 -54.0033 -21.5087 16.4925 -52.1625 
-21.1682 15.0323 -52.7323 -20.4666 13.7203 -53.3609 -22.9712 15.8442 -50.4195 
-22.5207 13.9125 -51.1732 -21.5927 12.177 -52.0048 -24.2802 15.0901 -48.3394 
-23.7228 12.6998 -49.2721 -22.5744 10.5522 -50.3011 -25.427 14.2351 -45.9364 
-24.7663 11.4022 -47.0418 -23.4053 8.85697 -48.2613 -26.4032 13.2847 -43.2254 
-25.6438 10.0281 -44.4961 -24.0793 7.10231 -45.8979 -27.2031 12.2454 -40.2256 
-26.35 8.58707 -41.6531 -24.5924 5.30024 -43.2279 -27.8213 11.1245 -36.9571 
-26.8801 7.08869 -38.5318 -24.9412 3.46273 -40.2691 -28.2528 9.92882 -33.4406 
-27.2299 5.54269 -35.1521 -25.1227 1.60201 -37.0402 -28.4955 8.66695 -29.7008 
[...]
CELL_DATA 2304
FIELD FieldData 1
vtkOriginalCellIds 1 2304 vtkIdType
681 0 1 2 3 4 5 6 7 
8 9 10 11 12 13 14 30 31 
32 33 34 35 36 37 38 39 40 
41 42 43 44 45 46 47 66 67 
68 69 70 71 72 73 74 75 76 
77 78 79 80 81 82 83 102 103 
104 105 106 107 108 109 110 111 112 
113 114 115 116 117 118 119 138 139 
140 141 142 143 144 145 146 147 148 
149 150 151 152 153 154 155 174 175 
176 177 178 179 180 181 182 183 184 
185 186 187 188 189 190 191 210 211 
212 213 214 215 216 217 218 219 220 
221 222 223 224 225 226 227 246 247 
248 249 250 251 252 253 254 255 256 
257 258 259 260 261 262 263 300 301 
302 303 304 305 306 307 308 309 310 
311 312 313 314 330 331 332 333 334 
335 336 337 338 339 340 341 342 343 
344 345 346 347 366 367 368 369 370 
371 372 373 374 375 376 377 378 379 
380 381 382 383 402 403 404 405 406 
407 408 409 410 411 412 413 414 415 
416 417 418 419 438 439 440 441 442 
443 444 445 446 447 448 449 450 451 
452 453 454 455 474 475 476 477 478 
479 480 481 482 483 484 485 486 487 
488 489 490 491 510 511 512 513 514 
515 516 517 518 519 520 521 522 523 
524 525 526 527 546 547 548 549 550 
551 552 553 554 555 556 557 558 559 
560 561 562 563 600 601 602 603 604 
605 606 607 608 609 610 611 612 613 
614 630 631 632 633 634 635 636 637 
638 639 640 641 642 643 644 645 646 
647 666 667 668 669 670 671 672 673 
674 675 676 677 678 679 680 681 682 
683 702 703 704 705 706 707 708 709 
710 711 712 713 714 715 716 717 718 
719 738 739 740 741 742 743 744 745 
746 747 748 749 750 751 752 753 754 
755 774 775 776 777 778 779 780 781 
782 783 784 785 786 787 788 789 790 
791 810 811 812 813 814 815 816 817 
818 819 820 821 822 823 824 825 826 
827 846 847 848 849 850 851 852 853 
854 855 856 857 858 859 860 861 862 
863 900 901 902 903 904 905 906 907 
908 909 910 911 912 913 914 930 931 
932 933 934 935 936 937 938 939 940 
941 942 943 944 945 946 947 966 967 
968 969 970 971 972 973 974 975 976 
977 978 979 980 981 982 983 1002 1003 
1004 1005 1006 1007 1008 1009 1010 1011 1012 
1013 1014 1015 1016 1017 1018 1019 1038 1039 
1040 1041 1042 1043 1044 1045 1046 1047 1048 
1049 1050 1051 1052 1053 1054 1055 1074 1075 
1076 1077 1078 1079 1080 1081 1082 1083 1084 
1085 1086 1087 1088 1089 1090 1091 1110 1111 
1112 1113 1114 1115 1116 1117 1118 1119 1120 
1121 1122 1123 1124 1125 1126 1127 1146 1147 
1148 1149 1150 1151 1152 1153 1154 1155 1156 
1157 1158 1159 1160 1161 1162 1163 1200 1201 
1202 1203 1204 1205 1206 1207 1208 1209 1210 
1211 1212 1213 1214 1230 1231 1232 1233 1234 
1235 1236 1237 1238 1239 1240 1241 1242 1243 
1244 1245 1246 1247 1266 1267 1268 1269 1270 
1271 1272 1273 1274 1275 1276 1277 1278 1279 
1280 1281 1282 1283 1302 1303 1304 1305 1306 
1307 1308 1309 1310 1311 1312 1313 1314 1315 
1316 1317 1318 1319 1338 1339 1340 1341 1342 
1343 1344 1345 1346 1347 1348 1349 1350 1351 
1352 1353 1354 1355 1374 1375 1376 1377 1378 
1379 1380 1381 1382 1383 1384 1385 1386 1387 
1388 1389 1390 1391 1410 1411 1412 1413 1414 
1415 1416 1417 1418 1419 1420 1421 1423 1424 
1425 1426 1427 1446 1447 1448 1449 1450 1451 
1452 1453 1454 1455 1456 1457 1458 1459 1460 
1461 1462 1463 1500 1501 1502 1503 1504 1505 
1506 1507 1508 1509 1510 1511 1512 1513 1514 
1530 1531 1532 1533 1534 1535 1536 1537 1538 
1539 1540 1541 1542 1543 1544 1545 1546 1547 
1566 1567 1568 1569 1570 1571 1572 1573 1574 
1575 1576 1577 1578 1579 1580 1581 1582 1583 
1602 1603 1604 1605 1606 1607 1608 1609 1610 
1611 1612 1613 1614 1615 1616 1617 1618 1619 
1638 1639 1640 1641 1642 1643 1644 1645 1646 
1647 1648 1649 1650 1651 1652 1653 1654 1655 
1674 1675 1676 1677 1678 1679 1680 1681 1682 
1683 1684 1685 1686 1687 1688 1689 1690 1691 
1710 1711 1712 1713 1714 1715 1716 1717 1718 
1719 1720 1721 1722 1723 1724 1725 1726 1727 
1746 1747 1748 1749 1750 1751 1752 1753 1754 
1755 1756 1757 1758 1759 1760 1761 1762 1763 
1800 1801 1802 1803 1804 1805 1806 1807 1808 
1809 1810 1811 1812 1813 1814 1830 1831 1832 
1833 1834 1835 1836 1837 1838 1839 1840 1841 
1842 1843 1844 1845 1846 1847 1866 1867 1868 
1869 1870 1871 1872 1873 1874 1875 1876 1877 
1878 1879 1880 1881 1882 1883 1902 1903 1904 
1905 1906 1907 1908 1909 1910 1911 1912 1913 
1914 1915 1916 1917 1918 1919 1938 1939 1940 
1941 1942 1943 1944 1945 1946 1947 1948 1949 
1950 1951 1952 1953 1954 1955 1974 1975 1976 
1977 1978 1979 1980 1981 1982 1983 1984 1985 
1986 1987 1988 1989 1990 1991 2010 2011 2012 
2013 2014 2015 2016 2017 2018 2019 2020 2021 
2022 2023 2024 2025 2026 2027 2046 2047 2048 
2049 2050 2051 2052 2053 2054 2055 2056 2057 
2058 2059 2060 2061 2062 2063 2100 2101 2102 
2103 2104 2105 2106 2107 2108 2109 2110 2111 
2112 2113 2114 2130 2131 2132 2133 2134 2135 
2136 2137 2138 2139 2140 2141 2142 2143 2144 
2145 2146 2147 2166 2167 2168 2169 2170 2171 
2172 2173 2174 2175 2176 2177 2178 2179 2180 
2181 2182 2183 2202 2203 2204 2205 2206 2207 
2208 2209 2210 2211 2212 2213 2214 2215 2216 
2217 2218 2219 2238 2239 2240 2241 2242 2243 
2244 2245 2246 2247 2248 2249 2250 2251 2252 
2253 2254 2255 2274 2275 2276 2277 2278 2279 
2280 2281 2282 2283 2284 2285 2286 2287 2288 
2289 2290 2291 2310 2311 2312 2313 2314 2315 
2316 2317 2318 2319 2320 2321 2322 2323 2324 
2325 2326 2327 2346 2347 2348 2349 2350 2351 
2352 2353 2354 2355 2356 2357 2358 2359 2360 
2361 2362 2363 15 16 17 18 19 20 
21 22 23 24 25 26 27 28 29 
48 49 50 51 52 53 54 55 56 
57 58 59 60 61 62 63 64 65 
84 85 86 87 88 89 90 91 92 
93 94 95 96 97 98 99 100 101 
120 121 122 123 124 125 126 127 128 
129 130 131 132 133 134 135 136 137 
156 157 158 159 160 161 162 163 164 
165 166 167 168 169 170 171 172 173 
192 193 194 195 196 197 198 199 200 
201 202 203 204 205 206 207 208 209 
228 229 230 231 232 233 234 235 236 
237 238 239 240 241 242 243 244 245 
264 265 266 267 268 269 270 271 272 
273 274 275 276 277 278 279 280 281 
315 316 317 318 319 320 321 322 323 
324 325 326 327 328 329 348 349 350 
351 352 353 354 355 356 357 358 359 
360 361 362 363 364 365 384 385 386 
387 388 389 390 391 392 393 394 395 
396 397 398 399 400 401 420 421 422 
423 424 425 426 427 428 429 430 431 
432 433 434 435 436 437 456 457 458 
459 460 461 462 463 464 465 466 467 
468 469 470 471 472 473 492 493 494 
495 496 497 498 499 500 501 502 503 
504 505 506 507 508 509 528 529 530 
531 532 533 534 535 536 537 538 539 
540 541 542 543 544 545 564 565 566 
567 568 569 570 571 572 573 574 575 
576 577 578 579 580 581 615 616 617 
618 619 620 621 622 623 624 625 626 
627 628 629 648 649 650 651 652 653 
654 655 656 657 658 659 660 661 662 
663 664 665 684 685 686 687 688 689 
690 691 692 693 694 695 696 697 698 
699 700 701 720 721 722 723 724 725 
726 727 728 729 730 731 732 733 734 
735 736 737 756 757 758 759 760 761 
762 763 764 765 766 767 768 769 770 
771 772 773 792 793 794 795 796 797 
798 799 800 801 802 803 804 805 806 
807 808 809 828 829 830 831 832 833 
834 835 836 837 838 839 840 841 842 
843 844 845 864 865 866 867 868 869 
870 871 872 873 874 875 876 877 878 
879 880 881 915 916 917 918 919 920 
921 922 923 924 925 926 927 928 929 
948 949 950 951 952 953 954 955 956 
957 958 959 960 961 962 963 964 965 
984 985 986 987 988 989 990 991 992 
993 994 995 996 997 998 999 1000 1001 
1020 1021 1022 1023 1024 1025 1026 1027 1028 
1029 1030 1031 1032 1033 1034 1035 1036 1037 
1056 1057 1058 1059 1060 1061 1062 1063 1064 
1065 1066 1067 1068 1069 1070 1071 1072 1073 
1092 1093 1094 1095 1096 1097 1098 1099 1100 
1101 1102 1103 1104 1105 1106 1107 1108 1109 
1128 1129 1130 1131 1132 1133 1134 1135 1136 
1137 1138 1139 1140 1141 1142 1143 1144 1145 
1164 1165 1166 1167 1168 1169 1170 1171 1172 
1173 1174 1175 1176 1177 1178 1179 1180 1181 
1215 1216 1217 1218 1219 1220 1221 1222 1223 
1224 1225 1226 1227 1228 1229 1248 1249 1250 
1251 1252 1253 1254 1255 1256 1257 1258 1259 
1260 1261 1262 1263 1264 1265 1284 1285 1286 
1287 1288 1289 1290 1291 1292 1293 1294 1295 
1296 1297 1298 1299 1300 1301 1320 1321 1322 
1323 1324 1325 1326 1327 1328 1329 1330 1331 
1332 1333 1334 1335 1336 1337 1356 1357 1358 
1359 1360 1361 1362 1363 1364 1365 1366 1367 
1368 1369 1370 1371 1372 1373 1392 1393 1394 
1395 1396 1397 1398 1399 1400 1401 1402 1403 
1404 1405 1406 1407 1408 1409 1428 1429 1430 
1431 1432 1433 1434 1435 1436 1437 1438 1439 
1440 1441 1442 1443 1444 1445 1464 1465 1466 
1467 1468 1469 1470 1471 1472 1473 1474 1475 
1476 1477 1478 1479 1480 1481 1515 1516 1517 
1518 1519 1520 1521 1522 1523 1524 1525 1526 
1527 1528 1529 1548 1549 1550 1551 1552 1553 
1554 1555 1556 1557 1558 1559 1560 1561 1562 
1563 1564 1565 1584 1585 1586 1587 1588 1589 
1590 1591 1592 1593 1594 1595 1596 1597 1598 
1599 1600 1601 1620 1621 1622 1623 1624 1625 
1626 1627 1628 1629 1630 1631 1632 1633 1634 
1635 1636 1637 1656 1657 1658 1659 1660 1661 
1662 1663 1664 1665 1666 1667 1668 1669 1670 
1671 1672 1673 1692 1693 1694 1695 1696 1697 
1698 1699 1700 1701 1702 1703 1704 1705 1706 
1707 1708 1709 1728 1729 1730 1731 1732 1733 
1734 1735 1736 1737 1738 1739 1740 1741 1742 
1743 1744 1745 1764 1765 1766 1767 1768 1769 
1770 1771 1772 1773 1774 1775 1776 1777 1778 
1779 1780 1781 1815 1816 1817 1818 1819 1820 
1821 1822 1823 1824 1825 1826 1827 1828 1829 
1848 1849 1850 1851 1852 1853 1854 1855 1856 
1857 1858 1859 1860 1861 1862 1863 1864 1865 
1884 1885 1886 1887 1888 1889 1890 1891 1892 
1893 1894 1895 1896 1897 1898 1899 1900 1901 
1920 1921 1922 1923 1924 1925 1926 1927 1928 
1929 1930 1931 1932 1933 1934 1935 1936 1937 
1956 1957 1958 1959 1960 1961 1962 1963 1964 
1965 1966 1967 1968 1969 1970 1971 1972 1973 
1992 1993 1994 1995 1996 1997 1998 1999 2000 
2001 2002 2003 2004 2005 2006 2007 2008 2009 
2028 2029 2030 2031 2032 2033 2034 2035 2036 
2037 2038 2039 2040 2041 2042 2043 2044 2045 
2064 2065 2066 2067 2068 2069 2070 2071 2072 
2073 2074 2075 2076 2077 2078 2079 2080 2081 
2115 2116 2117 2118 2119 2120 2121 2122 2123 
2124 2125 2126 2127 2128 2129 2148 2149 2150 
2151 2152 2153 2154 2155 2156 2157 2158 2159 
2160 2161 2162 2163 2164 2165 2184 2185 2186 
2187 2188 2189 2190 2191 2192 2193 2194 2195 
2196 2197 2198 2199 2200 2201 2220 2221 2222 
2223 2224 2225 2226 2227 2228 2229 2230 2231 
2232 2233 2234 2235 2236 2237 2256 2257 2258 
2259 2260 2261 2262 2263 2264 2265 2266 2267 
2268 2269 2270 2271 2272 2273 2292 2293 2294 
2295 2296 2297 2298 2299 2300 2301 2302 2303 
2304 2305 2306 2307 2308 2309 2328 2329 2330 
2331 2332 2333 2334 2335 2336 2337 2338 2339 
2340 2341 2342 2343 2344 2345 2364 2365 2366 
2367 2368 2369 2370 2371 2372 2373 2374 2375 
2376 2377 2378 2379 2380 2381 0 1 2 
3 4 5 6 7 9 10 11 14 
15 17 18 19 20 21 22 23 24 
25 26 28 30 31 36 37 38 40 
41 42 45 46 49 50 51 54 56 
57 60 62 63 64 65 66 68 69 

POINT_DATA 1082
FIELD FieldData 1
vtkOriginalPointIds 1 1082 vtkIdType
300 373 303 0 5 8 9 10 11 
12 26 27 28 29 30 31 32 33 
34 35 36 37 50 51 52 53 54 
55 56 57 58 59 60 61 74 75 
76 77 78 79 80 81 82 83 84 
85 98 99 100 101 102 103 104 105 
106 107 108 109 122 123 124 125 126 
127 128 129 130 131 132 133 146 147 
148 149 150 151 152 153 154 155 156 
157 170 171 172 173 174 175 176 177 
25 43 24 26 206 208 209 210 220 
221 222 223 224 225 226 227 228 238 
239 240 241 242 243 244 245 246 256 
257 258 259 260 261 262 263 264 274 
275 276 277 278 279 280 281 282 292 
293 294 295 296 297 298 299 300 310 
311 312 313 314 315 316 317 318 328 
329 330 331 332 333 28 27 29 355 
357 358 359 360 370 371 372 373 374 
375 376 377 378 388 389 390 391 392 
393 394 395 396 406 407 408 409 410 
411 412 413 414 424 425 426 427 428 
429 430 431 432 442 443 444 445 446 
447 448 449 450 460 461 462 463 464 
465 466 467 468 478 479 480 481 482 
483 44 31 30 506 508 509 510 520 
521 522 523 524 525 526 527 528 538 
539 540 541 542 543 544 545 546 556 
557 558 559 560 561 562 563 564 574 
575 576 577 578 579 580 581 582 592 
593 594 595 596 597 598 599 600 610 
611 612 613 614 616 617 628 629 630 
631 632 633 33 32 39 655 657 658 
659 660 670 671 672 673 674 675 676 
677 678 688 689 690 691 692 693 694 
695 696 706 707 708 709 710 711 712 
713 714 724 725 726 727 728 729 730 
731 732 742 743 744 745 746 747 748 
749 750 760 761 762 763 764 765 767 
768 778 779 780 781 782 783 45 41 
40 806 808 809 810 820 821 822 823 
824 825 826 827 828 838 839 840 841 
842 843 844 845 846 856 857 858 859 
860 861 862 863 864 874 875 876 877 
878 879 880 881 882 892 893 894 895 
896 897 898 899 900 910 911 912 913 
914 915 916 917 918 928 929 930 931 
932 933 35 34 38 955 957 958 959 
960 970 971 972 973 974 975 976 977 
978 988 989 990 991 992 993 994 995 
996 1006 1007 1008 1009 1010 1011 1012 1013 
1014 1024 1025 1026 1027 1028 1029 1030 1031 
1032 1042 1043 1044 1045 1046 1047 1048 1049 
1050 1060 1061 1062 1063 1064 1065 1066 1067 
1068 1078 1079 1080 1081 1082 1083 46 37 
36 1105 1106 1107 1114 1115 1116 1117 1118 
1119 1126 1127 1128 1129 1130 1131 1138 1139 
1140 1141 1142 1143 1150 1151 1152 1153 1154 
1155 1162 1163 1164 1165 1166 1167 1174 1175 
1176 1177 1178 1179 1186 1187 1188 1189 42 
47 13 18 21 22 23 24 25 38 
39 40 41 42 43 44 45 46 47 
48 49 62 63 64 65 66 67 68 
69 70 71 72 73 86 87 88 89 
90 91 92 93 94 95 96 97 110 
111 112 113 114 115 116 117 118 119 
120 121 134 135 136 137 138 139 140 
141 142 143 144 145 158 159 160 161 
162 163 164 165 166 167 168 169 182 
183 184 185 186 187 188 189 2 1 
3 4 215 217 218 219 229 230 231 
232 233 234 235 236 237 247 248 249 
250 251 252 253 254 255 265 266 267 
268 269 270 271 272 273 283 284 285 
286 287 288 289 290 291 301 302 303 
304 305 306 307 308 309 319 320 321 
322 323 324 325 326 327 337 338 339 
340 341 342 5 21 6 364 366 367 
368 369 379 380 381 382 383 384 385 
386 387 397 398 399 400 401 402 403 
404 405 415 416 417 418 419 420 421 
422 423 433 434 435 436 437 438 439 
440 441 451 452 453 454 455 456 457 
458 459 469 470 471 472 473 474 475 
476 477 487 488 489 490 491 492 7 
8 9 515 517 518 519 529 530 531 
532 533 534 535 536 537 547 548 549 
550 551 552 553 554 555 565 566 567 
568 569 570 571 572 573 583 584 585 
586 587 588 589 590 591 601 602 603 
604 605 606 607 608 609 619 620 621 
622 623 624 625 626 627 637 638 639 
640 641 642 10 22 13 664 666 667 
668 669 679 680 681 682 683 684 685 
686 687 697 698 699 700 701 702 703 
704 705 715 716 717 718 719 720 721 
722 723 733 734 735 736 737 738 739 
740 741 751 752 753 754 755 756 757 
758 759 769 770 771 772 773 774 775 
776 777 787 788 789 790 791 792 14 
15 16 815 817 818 819 829 830 831 
832 833 834 835 836 837 847 848 849 
850 851 852 853 854 855 865 866 867 
868 869 870 871 872 873 883 884 885 
886 887 888 889 890 891 901 902 903 
904 905 906 907 908 909 919 920 921 
922 923 924 925 926 927 937 938 939 
940 941 942 17 23 18 964 966 967 
968 969 979 980 981 982 983 984 985 
986 987 997 998 999 1000 1001 1002 1003 
1004 1005 1015 1016 1017 1018 1019 1020 1021 
1022 1023 1033 1034 1035 1036 1037 1038 1039 
1040 1041 1051 1052 1053 1054 1055 1056 1057 
1058 1059 1069 1070 1071 1072 1073 1074 1075 
1076 1077 1087 1088 1089 1090 1091 1092 19 
20 11 1111 1112 1113 1120 1121 1122 1123 
1124 1125 1132 1133 1134 1135 1136 1137 1144 
1145 1146 1147 1148 1149 1156 1157 1158 1159 
1160 1161 1168 1169 1170 1171 1172 1173 1180 
1181 1182 1183 1184 1185 1192 1193 1194 1195 
12 0 
