# vtk DataFile Version 5.1
vtk output
ASCII
DATASET POLYDATA
POINTS 1082 float
-25.2 -6.93067 10.5516 -21.125 -12.5323 15.6954 -23.8125 -6.45094 15.8056 
-14.2681 -5.12221 -65.2743 -10.6806 -3.11037 -65.297 -12.1121 -1.77512 -65.0889 
-8.1371 -1.70568 -64.8209 -7.47695 -3.19949 -64.848 -9.18191 -0.431685 -64.6925 
-10.5407 0.536239 -64.4714 -5.96582 -0.533698 -63.7978 -5.09251 -2.50986 -63.8336 
-7.348 1.15166 -63.6279 -9.14549 2.43212 -63.3355 -3.75467 0.641834 -62.3483 
-2.67402 -1.80345 -62.3926 -5.46498 2.72729 -62.1381 -7.68917 4.31177 -61.7763 
-1.51848 1.81307 -60.4822 -0.237639 -1.08499 -60.5348 -3.54542 4.28472 -60.2331 
-6.18151 6.16254 -59.8043 0.728063 2.97221 -58.2106 2.20033 -0.359246 -58.271 
-1.60212 5.8134 -57.9242 -4.63233 7.97209 -57.4313 2.96958 4.11143 -55.5501 
4.62353 0.368873 -55.6179 0.35196 7.30326 -55.2284 -3.05225 9.72832 -54.6746 
5.19126 5.22318 -52.5185 7.01592 1.09455 -52.5934 2.30361 8.74434 -52.1636 
-1.45178 11.4196 -51.5527 7.37823 6.29994 -49.1346 9.3612 1.81287 -49.2159 
4.23989 10.1267 -48.7489 0.158408 13.0342 -48.0849 9.5159 7.33461 -45.4224 
11.6439 2.51907 -45.5097 6.14766 11.4415 -45.0084 1.76755 14.5617 -44.2958 
11.5899 8.32025 -41.4068 13.8489 3.20846 -41.4994 8.0146 12.6798 -40.9673 
3.36496 15.9921 -40.2109 13.5861 9.25008 -37.1136 15.961 3.87634 -37.211 
9.82763 13.8331 -36.6516 4.93972 17.3151 -35.8564 15.4918 10.1181 -32.5722 
17.9664 4.5183 -32.6737 11.575 14.8939 -32.0908 6.48148 18.5224 -31.2622 
17.2938 10.9186 -27.8134 19.8518 5.13007 -27.9183 13.2451 15.8553 -27.3158 
7.97997 19.6061 -26.4592 18.9798 11.6458 -22.868 21.6041 5.70746 -22.9756 
14.8263 16.7104 -22.3575 9.42491 20.5582 -21.4788 20.5391 12.2952 -17.7698 
23.2121 6.2467 -17.8794 16.3086 17.4536 -17.2498 10.8069 21.3729 -16.3548 
21.9611 12.8625 -12.5528 24.6649 6.7442 -12.6637 17.6817 18.0804 -12.0269 
12.1167 22.0449 -11.1215 23.2359 13.3435 -7.25175 25.9524 7.19649 -7.36317 
18.9365 18.586 -6.72335 13.3452 22.569 -5.81374 24.3554 13.7354 -1.90221 
27.0664 7.60068 -2.01338 20.0646 18.9673 -1.37486 14.4845 22.9423 -0.467051 
25.3121 14.0354 3.46003 27.9996 7.95411 3.3498 21.0586 19.2219 3.98281 
15.5271 23.1623 4.8827 26.0992 14.2414 8.79911 28.7451 8.2542 8.69059 
21.9115 19.3476 9.3138 16.4656 23.2271 10.1998 26.7119 14.3522 14.0794 
29.2986 8.49915 13.9733 22.618 19.3441 14.5825 17.2941 23.1366 15.4487 
27.146 14.3671 19.2655 29.6562 8.68727 19.1625 23.1733 19.2113 19.7538 
18.0069 22.8915 20.5943 -14.073 -1.32303 -64.6958 -12.1291 1.12107 -64.1701 
-13.8331 1.29533 -63.8113 -15.5374 1.04725 -63.4193 -11.2468 3.20577 -62.9369 
-13.501 3.43631 -62.4622 -15.7556 3.10812 -61.9436 -10.2893 5.26904 -61.283 
-13.0787 5.55431 -60.6957 -15.8685 5.14824 -60.054 -9.26309 7.29715 -59.2197 
-12.569 7.63516 -58.5236 -15.8754 7.15397 -57.7631 -8.17476 9.27628 -56.7593 
-11.975 9.66498 -55.9591 -15.7759 9.11174 -55.0849 -7.03184 11.1935 -53.9196 
-11.301 11.6301 -53.0207 -15.5709 11.0086 -52.0386 -5.84191 13.0359 -50.7199 
-10.5516 13.5175 -49.7282 -15.262 12.8319 -48.6448 -4.61283 14.7909 -47.1798 
-9.73132 15.3143 -46.1021 -14.8506 14.5692 -44.9246 -3.35285 16.4469 -43.3245 
-8.84604 17.0088 -42.1679 -14.34 16.209 -40.9042 -2.07059 17.9933 -39.1798 
-7.90167 18.5896 -37.952 -13.7337 17.7407 -36.6106 -0.774398 19.4189 -34.7725 
-6.90431 20.0457 -33.4818 -13.0352 19.1534 -32.0716 0.527024 20.7147 -30.1326 
-5.86082 21.368 -28.7876 -12.2496 20.438 -27.3181 1.8249 21.8722 -25.2917 
-4.77819 22.5475 -23.9013 -11.3823 21.5861 -22.3823 3.11057 22.8829 -20.281 
-3.66349 23.5757 -18.8546 -10.4385 22.5895 -17.2963 4.37529 23.7408 -15.1347 
-2.52433 24.4465 -13.6819 -9.42505 23.442 -12.0947 5.61098 24.4401 -9.88745 
-1.36829 25.1539 -8.41788 -8.3486 24.1378 -6.81235 6.80894 24.9755 -4.57384 
-0.203079 25.6926 -3.09738 -7.21618 24.6717 -1.4843 7.96144 25.3441 0.770337 
0.963468 26.0597 2.24384 -6.03552 25.0408 3.85368 9.06071 25.5431 6.10934 
2.1236 26.2526 7.57002 -4.81458 25.2427 9.16587 10.0992 25.571 11.4074 
3.26949 26.2696 12.8455 -3.56132 25.2752 14.4167 11.0703 25.4282 16.6293 
4.39355 26.1109 18.0352 -2.28429 25.139 19.5711 11.9674 25.1152 21.7399 
5.4882 25.7778 23.1042 -0.991985 24.8346 24.5947 -16.0328 -1.86789 -64.2246 
-17.472 -3.2653 -63.8004 -17.1236 0.380497 -63.0203 -18.4886 -0.647036 -62.6413 
-19.5401 -1.96581 -62.308 -17.854 2.22608 -61.4158 -19.6598 0.866755 -60.9144 
-21.0507 -0.87783 -60.4734 -18.465 4.05678 -59.4008 -20.6995 2.37475 -58.7804 
-22.4207 0.216029 -58.2347 -18.9527 5.86033 -56.9889 -21.601 3.86691 -56.2536 
-23.6409 1.30841 -55.607 -19.3134 7.62475 -54.1949 -22.3576 5.33311 -53.3497 
-24.7026 2.39207 -52.6063 -19.5449 9.33807 -51.0389 -22.9648 6.76374 -50.0893 
-25.5992 3.45972 -49.2542 -19.6459 10.989 -47.5419 -23.4187 8.14913 -46.4944 
-26.3248 4.50426 -45.5731 -19.6152 12.5664 -43.726 -23.7154 9.47991 -42.5875 
-26.8738 5.51856 -41.5863 -19.4534 14.0597 -39.6179 -23.8537 10.7472 -38.3961 
-27.2432 6.496 -37.3216 -19.1616 15.4591 -35.2451 -23.8326 11.9429 -33.9481 
-27.4308 7.43011 -32.8075 -18.7413 16.7547 -30.6361 -23.6518 13.0584 -29.2727 
-27.4344 8.31434 -28.0736 -18.1958 17.9386 -25.8222 -23.3128 14.0866 -24.4015 
-27.2545 9.14299 -23.1519 -17.5287 19.0025 -20.836 -22.8182 15.0208 -19.3674 
-26.8927 9.9106 -18.0757 -16.7441 19.9389 -15.71 -22.1706 15.8542 -14.2033 
-26.3505 10.6117 -12.8783 -15.8476 20.7423 -10.479 -21.3746 16.5817 -8.94436 
-25.6322 11.2419 -7.59471 -14.8452 21.4069 -5.17798 -20.4361 17.1983 -3.62564 
-24.7427 11.7971 -2.26043 -13.7433 21.9281 0.157751 -19.3604 17.6998 1.71737 
-23.6872 12.2731 3.089 -12.5496 22.3027 5.49243 -18.1554 18.0829 7.04892 
-22.4734 12.6671 8.41777 -11.272 22.5283 10.7904 -16.829 18.3451 12.3333 
-21.1096 12.9764 13.6903 -9.91882 22.6029 16.016 -15.3898 18.4844 17.5351 
-19.6042 13.1988 18.8711 -8.49935 22.5264 21.1347 -13.8479 18.5003 22.6197 
-17.9677 13.333 23.9257 -7.02311 22.2994 26.112 -12.2134 18.3924 27.5531 
-16.2113 13.378 28.8205 -17.9968 -5.14445 -63.5382 -20.1949 -3.49356 -62.0449 
-20.4213 -5.12099 -61.8677 -20.204 -6.73793 -61.7883 -21.917 -2.89888 -60.1255 
-22.2165 -5.05179 -59.8911 -21.9291 -7.19083 -59.786 -23.4926 -2.28483 -57.8042 
-23.8632 -4.94884 -57.5141 -23.5076 -7.59569 -57.3842 -24.9113 -1.65551 -55.0967 
-25.3505 -4.8128 -54.7529 -24.929 -7.94979 -54.5989 -26.1628 -1.01508 -52.0197 
-26.6679 -4.64453 -51.6245 -26.1833 -8.25059 -51.4475 -27.2397 -0.367903 -48.5952 
-27.807 -4.4452 -48.1513 -27.2626 -8.49625 -47.9524 -28.1346 0.281771 -44.8462 
-28.7603 -4.21619 -44.3564 -28.1598 -8.68518 -44.137 -28.8408 0.929508 -40.7962 
-29.5208 -3.95891 -40.2639 -28.8681 -8.81583 -40.0255 -29.3541 1.57112 -36.4737 
-30.0841 -3.67516 -35.9024 -29.3835 -8.88756 -35.6465 -29.6715 2.20212 -31.9075 
-30.4463 -3.36686 -31.3011 -29.7027 -8.89995 -31.0294 -29.7899 2.81842 -27.1274 
-30.6043 -3.03597 -26.49 -29.8228 -8.85268 -26.2044 -29.7092 3.4159 -22.166 
-30.558 -2.68481 -21.5017 -29.7434 -8.74621 -21.2041 -29.43 3.99057 -17.0566 
-30.3074 -2.31572 -16.3699 -29.4654 -8.58132 -16.0623 -28.9535 4.5385 -11.8327 
-29.8535 -1.93107 -11.1283 -28.9898 -8.3589 -10.8127 -28.2835 5.05594 -6.52974 
-29.2003 -1.53356 -5.81224 -28.3205 -8.08061 -5.4908 -27.4245 5.5398 -1.1832 
-28.3519 -1.12577 -0.457417 -27.4619 -7.74833 -0.132271 -26.3817 5.98641 4.17131 
-27.3134 -0.710439 4.90048 -26.4193 -7.36411 5.22716 -25.1626 6.39304 9.49793 
-26.0925 -0.290382 10.2256 -23.7753 6.75695 14.761 -24.6971 0.131647 15.4824 
-22.2286 7.07554 19.9252 -23.1362 0.552769 20.6355 -22.2653 -5.92795 20.9537 
-20.5335 7.34692 24.9563 -21.4206 0.970225 25.6506 -20.5693 -5.36537 25.9617 
-18.7011 7.56913 29.8205 -19.562 1.38116 30.4943 -18.7359 -4.76691 30.7962 
-17.4742 -6.99716 -63.507 -16.0427 -8.3324 -63.7152 -19.5439 -8.23174 -61.8154 
-18.4991 -9.50573 -61.9438 -17.1403 -10.4737 -62.1649 -21.0557 -9.16699 -59.8219 
-19.6736 -10.8523 -59.9917 -17.8761 -12.1328 -60.2842 -22.4269 -10.041 -57.4285 
-20.7166 -12.1264 -57.6387 -18.4924 -13.7109 -58.0005 -23.6482 -10.8479 -54.6514 
-21.6212 -13.3195 -54.9005 -18.9851 -15.1973 -55.3294 -24.711 -11.582 -51.5079 
-22.3808 -14.4232 -51.7943 -19.3506 -16.5819 -52.2872 -25.6086 -12.2388 -48.0202 
-22.991 -15.4306 -48.3419 -19.5868 -17.8557 -48.8958 -26.3352 -12.8138 -44.2118 
-23.4475 -16.335 -44.5667 -19.6921 -19.0102 -45.1777 -26.8852 -13.3029 -40.1068 
-23.7468 -17.1297 -40.4925 -19.6654 -20.0371 -41.1565 -27.2555 -13.7031 -35.7338 
-23.8873 -17.81 -36.1478 -19.5072 -20.9302 -36.8604 -27.4437 -14.0117 -31.1221 
-23.8684 -18.3713 -31.5615 -19.2188 -21.6836 -32.3179 -27.4479 -14.2264 -26.3018 
-23.6894 -18.8094 -26.7638 -18.8015 -22.2915 -27.5589 -27.2687 -14.346 -21.3056 
-23.352 -19.1218 -21.787 -18.2584 -22.7503 -22.6156 -26.9073 -14.3698 -16.1672 
-22.8587 -19.3066 -16.6648 -17.5935 -23.0573 -17.5213 -26.3654 -14.2972 -10.9203 
-22.212 -19.3618 -11.4308 -16.8106 -23.2096 -12.3095 -25.6475 -14.1291 -5.60043 
-21.417 -19.2875 -6.12038 -15.9153 -23.2068 -7.01542 -24.7581 -13.8666 -0.243167 
-20.4788 -19.0846 -0.769112 -14.9137 -23.049 -1.67446 -23.7028 -13.5111 5.11574 
-19.4034 -18.7536 4.58734 -13.8121 -22.7367 3.67772 -22.4891 -13.0654 10.4405 
-18.1983 -18.2973 9.91313 -12.6182 -22.2723 9.00531 -16.8715 -17.7187 15.1726 
-11.34 -21.6592 14.2727 -19.6194 -11.9152 20.8451 -15.4317 -17.0213 20.3305 
-9.98577 -20.9008 19.4445 -17.9826 -11.2185 25.8556 -13.8888 -16.2103 25.3525 
-8.56481 -20.0028 24.4863 -16.2257 -10.4468 30.6932 -12.253 -15.2909 30.2049 
-7.08662 -18.9712 29.3644 -14.0818 -8.7845 -64.1083 -15.5519 -11.0585 -62.4662 
-13.8479 -11.2327 -62.825 -12.1436 -10.9847 -63.217 -15.7748 -12.9065 -60.6828 
-13.5206 -13.137 -61.1574 -11.266 -12.8088 -61.676 -15.8923 -14.6682 -58.4938 
-13.1029 -14.9534 -59.0811 -10.313 -14.5474 -59.7228 -15.9036 -16.3319 -55.914 
-12.5977 -16.6699 -56.6101 -9.29121 -16.1888 -57.3706 -15.8082 -17.8861 -52.9592 
-12.0079 -18.2748 -53.7594 -8.20708 -17.7216 -54.6336 -15.6072 -19.3209 -49.6507 
[...]
CELL_DATA 2304
FIELD FieldData 1
vtkOriginalCellIds 1 2304 vtkIdType
681 0 1 2 3 4 5 6 7 
8 9 10 11 12 13 14 30 31 
32 33 34 35 36 37 38 39 40 
41 42 43 44 45 46 47 66 67 
68 69 70 71 72 73 74 75 76 
77 78 79 80 81 82 83 102 103 
104 105 106 107 108 109 110 111 112 
113 114 115 116 117 118 119 138 139 
140 141 142 143 144 145 146 147 148 
149 150 151 152 153 154 155 174 175 
176 177 178 179 180 181 182 183 184 
185 186 187 188 189 190 191 210 211 
212 213 214 215 216 217 218 219 220 
221 222 223 224 225 226 227 246 247 
248 249 250 251 252 253 254 255 256 
257 258 259 260 261 262 263 300 301 
302 303 304 305 306 307 308 309 310 
311 312 313 314 330 331 332 333 334 
335 336 337 338 339 340 341 342 343 
344 345 346 347 366 367 368 369 370 
371 372 373 374 375 376 377 378 379 
380 381 382 383 402 403 404 405 406 
407 408 409 410 411 412 413 414 415 
416 417 418 419 438 439 440 441 442 
443 444 445 446 447 448 449 450 451 
452 453 454 455 474 475 476 477 478 
479 480 481 482 483 484 485 486 487 
488 489 490 491 510 511 512 513 514 
515 516 517 518 519 520 521 522 523 
524 525 526 527 546 547 548 549 550 
551 552 553 554 555 556 557 558 559 
560 561 562 563 600 601 602 603 604 
605 606 607 608 609 610 611 612 613 
614 630 631 632 633 634 635 636 637 
638 639 640 641 642 643 644 645 646 
647 666 667 668 669 670 671 672 673 
674 675 676 677 678 679 680 681 682 
683 702 703 704 705 706 707 708 709 
710 711 712 713 714 715 716 717 718 
719 738 739 740 741 742 743 744 745 
746 747 748 749 750 751 752 753 754 
755 774 775 776 777 778 779 780 781 
782 783 784 785 786 787 788 789 790 
791 810 811 812 813 814 815 816 817 
818 819 820 821 822 823 824 825 826 
827 846 847 848 849 850 851 852 853 
854 855 856 857 858 859 860 861 862 
863 900 901 902 903 904 905 906 907 
908 909 910 911 912 913 914 930 931 
932 933 934 935 936 937 938 939 940 
941 942 943 944 945 946 947 966 967 
968 969 970 971 972 973 974 975 976 
977 978 979 980 981 982 983 1002 1003 
1004 1005 1006 1007 1008 1009 1010 1011 1012 
1013 1014 1015 1016 1017 1018 1019 1038 1039 
1040 1041 1042 1043 1044 1045 1046 1047 1048 
1049 1050 1051 1052 1053 1054 1055 1074 1075 
1076 1077 1078 1079 1080 1081 1082 1083 1084 
1085 1086 1087 1088 1089 1090 1091 1110 1111 
1112 1113 1114 1115 1116 1117 1118 1119 1120 
1121 1122 1123 1124 1125 1126 1127 1146 1147 
1148 1149 1150 1151 1152 1153 1154 1155 1156 
1157 1158 1159 1160 1161 1162 1163 1200 1201 
1202 1203 1204 1205 1206 1207 1208 1209 1210 
1211 1212 1213 1214 1230 1231 1232 1233 1234 
1235 1236 1237 1238 1239 1240 1241 1242 1243 
1244 1245 1246 1247 1266 1267 1268 1269 1270 
1271 1272 1273 1274 1275 1276 1277 1278 1279 
1280 1281 1282 1283 1302 1303 1304 1305 1306 
1307 1308 1309 1310 1311 1312 1313 1314 1315 
1316 1317 1318 1319 1338 1339 1340 1341 1342 
1343 1344 1345 1346 1347 1348 1349 1350 1351 
1352 1353 1354 1355 1374 1375 1376 1377 1378 
1379 1380 1381 1382 1383 1384 1385 1386 1387 
1388 1389 1390 1391 1410 1411 1412 1413 1414 
1415 1416 1417 1418 1419 1420 1421 1423 1424 
1425 1426 1427 1446 1447 1448 1449 1450 1451 
1452 1453 1454 1455 1456 1457 1458 1459 1460 
1461 1462 1463 1500 1501 1502 1503 1504 1505 
1506 1507 1508 1509 1510 1511 1512 1513 1514 
1530 1531 1532 1533 1534 1535 1536 1537 1538 
1539 1540 1541 1542 1543 1544 1545 1546 1547 
1566 1567 1568 1569 1570 1571 1572 1573 1574 
1575 1576 1577 1578 1579 1580 1581 1582 1583 
1602 1603 1604 1605 1606 1607 1608 1609 1610 
1611 1612 1613 1614 1615 1616 1617 1618 1619 
1638 1639 1640 1641 1642 1643 1644 1645 1646 
1647 1648 1649 1650 1651 1652 1653 1654 1655 
1674 1675 1676 1677 1678 1679 1680 1681 1682 
1683 1684 1685 1686 1687 1688 1689 1690 1691 
1710 1711 1712 1713 1714 1715 1716 1717 1718 
1719 1720 1721 1722 1723 1724 1725 1726 1727 
1746 1747 1748 1749 1750 1751 1752 1753 1754 
1755 1756 1757 1758 1759 1760 1761 1762 1763 
1800 1801 1802 1803 1804 1805 1806 1807 1808 
1809 1810 1811 1812 1813 1814 1830 1831 1832 
1833 1834 1835 1836 1837 1838 1839 1840 1841 
1842 1843 1844 1845 1846 1847 1866 1867 1868 
1869 1870 1871 1872 1873 1874 1875 1876 1877 
1878 1879 1880 1881 1882 1883 1902 1903 1904 
1905 1906 1907 1908 1909 1910 1911 1912 1913 
1914 1915 1916 1917 1918 1919 1938 1939 1940 
1941 1942 1943 1944 1945 1946 1947 1948 1949 
1950 1951 1952 1953 1954 1955 1974 1975 1976 
1977 1978 1979 1980 1981 1982 1983 1984 1985 
1986 1987 1988 1989 1990 1991 2010 2011 2012 
2013 2014 2015 2016 2017 2018 2019 2020 2021 
2022 2023 2024 2025 2026 2027 2046 2047 2048 
2049 2050 2051 2052 2053 2054 2055 2056 2057 
2058 2059 2060 2061 2062 2063 2100 2101 2102 
2103 2104 2105 2106 2107 2108 2109 2110 2111 
2112 2113 2114 2130 2131 2132 2133 2134 2135 
2136 2137 2138 2139 2140 2141 2142 2143 2144 
2145 2146 2147 2166 2167 2168 2169 2170 2171 
2172 2173 2174 2175 2176 2177 2178 2179 2180 
2181 2182 2183 2202 2203 2204 2205 2206 2207 
2208 2209 2210 2211 2212 2213 2214 2215 2216 
2217 2218 2219 2238 2239 2240 2241 2242 2243 
2244 2245 2246 2247 2248 2249 2250 2251 2252 
2253 2254 2255 2274 2275 2276 2277 2278 2279 
2280 2281 2282 2283 2284 2285 2286 2287 2288 
2289 2290 2291 2310 2311 2312 2313 2314 2315 
2316 2317 2318 2319 2320 2321 2322 2323 2324 
2325 2326 2327 2346 2347 2348 2349 2350 2351 
2352 2353 2354 2355 2356 2357 2358 2359 2360 
2361 2362 2363 15 16 17 18 19 20 
21 22 23 24 25 26 27 28 29 
48 49 50 51 52 53 54 55 56 
57 58 59 60 61 62 63 64 65 
84 85 86 87 88 89 90 91 92 
93 94 95 96 97 98 99 100 101 
120 121 122 123 124 125 126 127 128 
129 130 131 132 133 134 135 136 137 
156 157 158 159 160 161 162 163 164 
165 166 167 168 169 170 171 172 173 
192 193 194 195 196 197 198 199 200 
201 202 203 204 205 206 207 208 209 
228 229 230 231 232 233 234 235 236 
237 238 239 240 241 242 243 244 245 
264 265 266 267 268 269 270 271 272 
273 274 275 276 277 278 279 280 281 
315 316 317 318 319 320 321 322 323 
324 325 326 327 328 329 348 349 350 
351 352 353 354 355 356 357 358 359 
360 361 362 363 364 365 384 385 386 
387 388 389 390 391 392 393 394 395 
396 397 398 399 400 401 420 421 422 
423 424 425 426 427 428 429 430 431 
432 433 434 435 436 437 456 457 458 
459 460 461 462 463 464 465 466 467 
468 469 470 471 472 473 492 493 494 
495 496 497 498 499 500 501 502 503 
504 505 506 507 508 509 528 529 530 
531 532 533 534 535 536 537 538 539 
540 541 542 543 544 545 564 565 566 
567 568 569 570 571 572 573 574 575 
576 577 578 579 580 581 615 616 617 
618 619 620 621 622 623 624 625 626 
627 628 629 648 649 650 651 652 653 
654 655 656 657 658 659 660 661 662 
663 664 665 684 685 686 687 688 689 
690 691 692 693 694 695 696 697 698 
699 700 701 720 721 722 723 724 725 
726 727 728 729 730 731 732 733 734 
735 736 737 756 757 758 759 760 761 
762 763 764 765 766 767 768 769 770 
771 772 773 792 793 794 795 796 797 
798 799 800 801 802 803 804 805 806 
807 808 809 828 829 830 831 832 833 
834 835 836 837 838 839 840 841 842 
843 844 845 864 865 866 867 868 869 
870 871 872 873 874 875 876 877 878 
879 880 881 915 916 917 918 919 920 
921 922 923 924 925 926 927 928 929 
948 949 950 951 952 953 954 955 956 
957 958 959 960 961 962 963 964 965 
984 985 986 987 988 989 990 991 992 
993 994 995 996 997 998 999 1000 1001 
1020 1021 1022 1023 1024 1025 1026 1027 1028 
1029 1030 1031 1032 1033 1034 1035 1036 1037 
1056 1057 1058 1059 1060 1061 1062 1063 1064 
1065 1066 1067 1068 1069 1070 1071 1072 1073 
1092 1093 1094 1095 1096 1097 1098 1099 1100 
1101 1102 1103 1104 1105 1106 1107 1108 1109 
1128 1129 1130 1131 1132 1133 1134 1135 1136 
1137 1138 1139 1140 1141 1142 1143 1144 1145 
1164 1165 1166 1167 1168 1169 1170 1171 1172 
1173 1174 1175 1176 1177 1178 1179 1180 1181 
1215 1216 1217 1218 1219 1220 1221 1222 1223 
1224 1225 1226 1227 1228 1229 1248 1249 1250 
1251 1252 1253 1254 1255 1256 1257 1258 1259 
1260 1261 1262 1263 1264 1265 1284 1285 1286 
1287 1288 1289 1290 1291 1292 1293 1294 1295 
1296 1297 1298 1299 1300 1301 1320 1321 1322 
1323 1324 1325 1326 1327 1328 1329 1330 1331 
1332 1333 1334 1335 1336 1337 1356 1357 1358 
1359 1360 1361 1362 1363 1364 1365 1366 1367 
1368 1369 1370 1371 1372 1373 1392 1393 1394 
1395 1396 1397 1398 1399 1400 1401 1402 1403 
1404 1405 1406 1407 1408 1409 1428 1429 1430 
1431 1432 1433 1434 1435 1436 1437 1438 1439 
1440 1441 1442 1443 1444 1445 1464 1465 1466 
1467 1468 1469 1470 1471 1472 1473 1474 1475 
1476 1477 1478 1479 1480 1481 1515 1516 1517 
1518 1519 1520 1521 1522 1523 1524 1525 1526 
1527 1528 1529 1548 1549 1550 1551 1552 1553 
1554 1555 1556 1557 1558 1559 1560 1561 1562 
1563 1564 1565 1584 1585 1586 1587 1588 1589 
1590 1591 1592 1593 1594 1595 1596 1597 1598 
1599 1600 1601 1620 1621 1622 1623 1624 1625 
1626 1627 1628 1629 1630 1631 1632 1633 1634 
1635 1636 1637 1656 1657 1658 1659 1660 1661 
1662 1663 1664 1665 1666 1667 1668 1669 1670 
1671 1672 1673 1692 1693 1694 1695 1696 1697 
1698 1699 1700 1701 1702 1703 1704 1705 1706 
1707 1708 1709 1728 1729 1730 1731 1732 1733 
1734 1735 1736 1737 1738 1739 1740 1741 1742 
1743 1744 1745 1764 1765 1766 1767 1768 1769 
1770 1771 1772 1773 1774 1775 1776 1777 1778 
1779 1780 1781 1815 1816 1817 1818 1819 1820 
1821 1822 1823 1824 1825 1826 1827 1828 1829 
1848 1849 1850 1851 1852 1853 1854 1855 1856 
1857 1858 1859 1860 1861 1862 1863 1864 1865 
1884 1885 1886 1887 1888 1889 1890 1891 1892 
1893 1894 1895 1896 1897 1898 1899 1900 1901 
1920 1921 1922 1923 1924 1925 1926 1927 1928 
1929 1930 1931 1932 1933 1934 1935 1936 1937 
1956 1957 1958 1959 1960 1961 1962 1963 1964 
1965 1966 1967 1968 1969 1970 1971 1972 1973 
1992 1993 1994 1995 1996 1997 1998 1999 2000 
2001 2002 2003 2004 2005 2006 2007 2008 2009 
2028 2029 2030 2031 2032 2033 2034 2035 2036 
2037 2038 2039 2040 2041 2042 2043 2044 2045 
2064 2065 2066 2067 2068 2069 2070 2071 2072 
2073 2074 2075 2076 2077 2078 2079 2080 2081 
2115 2116 2117 2118 2119 2120 2121 2122 2123 
2124 2125 2126 2127 2128 2129 2148 2149 2150 
2151 2152 2153 2154 2155 2156 2157 2158 2159 
2160 2161 2162 2163 2164 2165 2184 2185 2186 
2187 2188 2189 2190 2191 2192 2193 2194 2195 
2196 2197 2198 2199 2200 2201 2220 2221 2222 
2223 2224 2225 2226 2227 2228 2229 2230 2231 
2232 2233 2234 2235 2236 2237 2256 2257 2258 
2259 2260 2261 2262 2263 2264 2265 2266 2267 
2268 2269 2270 2271 2272 2273 2292 2293 2294 
2295 2296 2297 2298 2299 2300 2301 2302 2303 
2304 2305 2306 2307 2308 2309 2328 2329 2330 
2331 2332 2333 2334 2335 2336 2337 2338 2339 
2340 2341 2342 2343 2344 2345 2364 2365 2366 
2367 2368 2369 2370 2371 2372 2373 2374 2375 
2376 2377 2378 2379 2380 2381 0 1 2 
3 4 5 6 7 9 10 11 14 
15 17 18 19 20 21 22 23 24 
25 26 28 30 31 36 37 38 40 
41 42 45 46 49 50 51 54 56 
57 60 62 63 64 65 66 68 69 

POINT_DATA 1082
FIELD FieldData 1
vtkOriginalPointIds 1 1082 vtkIdType
300 373 303 0 5 8 9 10 11 
12 26 27 28 29 30 31 32 33 
34 35 36 37 50 51 52 53 54 
55 56 57 58 59 60 61 74 75 
76 77 78 79 80 81 82 83 84 
85 98 99 100 101 102 103 104 105 
106 107 108 109 122 123 124 125 126 
127 128 129 130 131 132 133 146 147 
148 149 150 151 152 153 154 155 156 
157 170 171 172 173 174 175 176 177 
25 43 24 26 206 208 209 210 220 
221 222 223 224 225 226 227 228 238 
239 240 241 242 243 244 245 246 256 
257 258 259 260 261 262 263 264 274 
275 276 277 278 279 280 281 282 292 
293 294 295 296 297 298 299 300 310 
311 312 313 314 315 316 317 318 328 
329 330 331 332 333 28 27 29 355 
357 358 359 360 370 371 372 373 374 
375 376 377 378 388 389 390 391 392 
393 394 395 396 406 407 408 409 410 
411 412 413 414 424 425 426 427 428 
429 430 431 432 442 443 444 445 446 
447 448 449 450 460 461 462 463 464 
465 466 467 468 478 479 480 481 482 
483 44 31 30 506 508 509 510 520 
521 522 523 524 525 526 527 528 538 
539 540 541 542 543 544 545 546 556 
557 558 559 560 561 562 563 564 574 
575 576 577 578 579 580 581 582 592 
593 594 595 596 597 598 599 600 610 
611 612 613 614 616 617 628 629 630 
631 632 633 33 32 39 655 657 658 
659 660 670 671 672 673 674 675 676 
677 678 688 689 690 691 692 693 694 
695 696 706 707 708 709 710 711 712 
713 714 724 725 726 727 728 729 730 
731 732 742 743 744 745 746 747 748 
749 750 760 761 762 763 764 765 767 
768 778 779 780 781 782 783 45 41 
40 806 808 809 810 820 821 822 823 
824 825 826 827 828 838 839 840 841 
842 843 844 845 846 856 857 858 859 
860 861 862 863 864 874 875 876 877 
878 879 880 881 882 892 893 894 895 
896 897 898 899 900 910 911 912 913 
914 915 916 917 918 928 929 930 931 
932 933 35 34 38 955 957 958 959 
960 970 971 972 973 974 975 976 977 
978 988 989 990 991 992 993 994 995 
996 1006 1007 1008 1009 1010 1011 1012 1013 
1014 1024 1025 1026 1027 1028 1029 1030 1031 
1032 1042 1043 1044 1045 1046 1047 1048 1049 
1050 1060 1061 1062 1063 1064 1065 1066 1067 
1068 1078 1079 1080 1081 1082 1083 46 37 
36 1105 1106 1107 1114 1115 1116 1117 1118 
1119 1126 1127 1128 1129 1130 1131 1138 1139 
1140 1141 1142 1143 1150 1151 1152 1153 1154 
1155 1162 1163 1164 1165 1166 1167 1174 1175 
1176 1177 1178 1179 1186 1187 1188 1189 42 
47 13 18 21 22 23 24 25 38 
39 40 41 42 43 44 45 46 47 
48 49 62 63 64 65 66 67 68 
69 70 71 72 73 86 87 88 89 
90 91 92 93 94 95 96 97 110 
111 112 113 114 115 116 117 118 119 
120 121 134 135 136 137 138 139 140 
141 142 143 144 145 158 159 160 161 
162 163 164 165 166 167 168 169 182 
183 184 185 186 187 188 189 2 1 
3 4 215 217 218 219 229 230 231 
232 233 234 235 236 237 247 248 249 
250 251 252 253 254 255 265 266 267 
268 269 270 271 272 273 283 284 285 
286 287 288 289 290 291 301 302 303 
304 305 306 307 308 309 319 320 321 
322 323 324 325 326 327 337 338 339 
340 341 342 5 21 6 364 366 367 
368 369 379 380 381 382 383 384 385 
386 387 397 398 399 400 401 402 403 
404 405 415 416 417 418 419 420 421 
422 423 433 434 435 436 437 438 439 
440 441 451 452 453 454 455 456 457 
458 459 469 470 471 472 473 474 475 
476 477 487 488 489 490 491 492 7 
8 9 515 517 518 519 529 530 531 
532 533 534 535 536 537 547 548 549 
550 551 552 553 554 555 565 566 567 
568 569 570 571 572 573 583 584 585 
586 587 588 589 590 591 601 602 603 
604 605 606 607 608 609 619 620 621 
622 623 624 625 626 627 637 638 639 
640 641 642 10 22 13 664 666 667 
668 669 679 680 681 682 683 684 685 
686 687 697 698 699 700 701 702 703 
704 705 715 716 717 718 719 720 721 
722 723 733 734 735 736 737 738 739 
740 741 751 752 753 754 755 756 757 
758 759 769 770 771 772 773 774 775 
776 777 787 788 789 790 791 792 14 
15 16 815 817 818 819 829 830 831 
832 833 834 835 836 837 847 848 849 
850 851 852 853 854 855 865 866 867 
868 869 870 871 872 873 883 884 885 
886 887 888 889 890 891 901 902 903 
904 905 906 907 908 909 919 920 921 
922 923 924 925 926 927 937 938 939 
940 941 942 17 23 18 964 966 967 
968 969 979 980 981 982 983 984 985 
986 987 997 998 999 1000 1001 1002 1003 
1004 1005 1015 1016 1017 1018 1019 1020 1021 
1022 1023 1033 1034 1035 1036 1037 1038 1039 
1040 1041 1051 1052 1053 1054 1055 1056 1057 
1058 1059 1069 1070 1071 1072 1073 1074 1075 
1076 1077 1087 1088 1089 1090 1091 1092 19 
20 11 1111 1112 1113 1120 1121 1122 1123 
1124 1125 1132 1133 1134 1135 1136 1137 1144 
1145 1146 1147 1148 1149 1156 1157 1158 1159 
1160 1161 1168 1169 1170 1171 1172 1173 1180 
1181 1182 1183 1184 1185 1192 1193 1194 1195 
12 0 
