# vtk DataFile Version 5.1
vtk output
ASCII
DATASET POLYDATA
POINTS 1082 float
-19.6388 19.1591 8.52673 -22.1836 13.5772 13.1926 -18.7635 18.5733 13.1251 
-8.60328 5.11894 -57.054 -5.05823 2.95434 -56.9969 -4.7694 4.78146 -56.8765 
-2.58622 1.44594 -56.5285 -3.42632 0.218707 -56.5119 -2.13433 2.91067 -56.4652 
-2.10128 4.51374 -56.3263 -0.527789 0.191208 -55.5924 -1.63917 -1.43229 -55.5705 
0.070002 2.12889 -55.5087 0.113741 4.24957 -55.3251 1.53415 -1.0648 -54.2849 
0.15895 -3.07374 -54.2578 2.27385 1.33288 -54.1813 2.32802 3.957 -53.9541 
3.58581 -2.31367 -52.6147 1.95603 -4.69466 -52.5825 4.46255 0.527941 -52.4919 
4.52667 3.63799 -52.2225 5.61356 -3.54714 -50.5916 3.73998 -6.2841 -50.5547 
6.62129 -0.28051 -50.4505 6.69508 3.29458 -50.1409 7.60368 -4.7568 -48.2306 
5.4989 -7.8315 -48.189 8.73584 -1.08714 -48.072 8.81869 2.92917 -47.7242 
9.543 -5.93469 -45.5473 7.22115 -9.32665 -45.5016 10.792 -1.88645 -45.3725 
10.8834 2.54419 -44.9887 11.4184 -7.07284 -42.5586 8.89491 -10.7592 -42.5088 
12.7758 -2.67317 -42.3685 12.8751 2.14214 -41.9515 13.2175 -8.16374 -39.2855 
10.5092 -12.1198 -39.232 14.6741 -3.44188 -39.0815 14.7807 1.72578 -38.6339 
14.9282 -9.20004 -35.7499 12.0534 -13.3996 -35.6932 16.4746 -4.18781 -35.5334 
16.5878 1.29788 -35.0582 16.5388 -10.1746 -31.9747 13.5167 -14.5894 -31.9151 
18.1644 -4.90552 -31.7471 18.2835 0.861297 -31.2476 18.039 -11.0813 -27.9857 
14.8897 -15.6818 -27.9235 19.733 -5.59047 -27.7485 19.8569 0.418946 -27.228 
19.4186 -11.9139 -23.8098 16.1632 -16.6694 -23.7456 21.1697 -6.23806 -23.5646 
21.2979 -0.0261983 -23.0266 20.668 -12.6665 -19.4743 17.3283 -17.5452 -19.4084 
22.4644 -6.84377 -19.2227 22.5959 -0.471166 -18.6708 21.7794 -13.3347 -15.0085 
18.3777 -18.3038 -14.9414 23.609 -7.40391 -14.7523 23.7429 -0.912989 -14.1902 
22.7451 -13.9136 -10.4426 19.3042 -18.94 -10.3747 24.5959 -7.91443 -10.1834 
24.7314 -1.34872 -9.61475 23.5584 -14.3993 -5.80659 20.1014 -19.4494 -5.73839 
25.4179 -8.37199 -5.54621 25.554 -1.77539 -4.97488 24.2143 -14.7888 -1.1318 
20.7641 -19.8287 -1.06372 26.0701 -8.77357 -0.871945 26.2058 -2.19021 -0.301739 
24.7084 -15.0794 3.55053 21.2883 -20.0755 3.618 26.5479 -9.11646 3.80814 
26.6826 -2.59039 4.37337 25.0368 -15.269 8.20909 21.6696 -20.1878 8.27552 
26.8479 -9.39831 8.46272 26.9804 -2.9732 9.0192 25.1979 -15.3565 12.8128 
21.9062 -20.1652 12.8777 26.9685 -9.61736 13.0607 27.098 -3.33615 13.6048 
25.1906 -15.3414 17.3308 21.9963 -20.0078 17.3938 26.9088 -9.77211 17.5714 
27.0344 -3.6768 18.0994 -5.48232 6.68105 -56.5986 -2.50276 6.14826 -56.1191 
-3.29828 7.70323 -55.8597 -4.43397 9.07343 -55.5655 -0.417392 6.41185 -55.051 
-1.46978 8.46893 -54.7077 -2.97219 10.2815 -54.3185 1.67075 6.63259 -53.6149 
0.368532 9.17802 -53.1901 -1.49052 11.421 -52.7086 3.74778 6.80904 -51.8206 
2.20436 9.82576 -51.3172 0.00111352 12.4841 -50.7464 5.79963 6.9398 -49.6788 
4.02552 10.4077 -49.1001 1.49274 13.4635 -48.444 7.81278 7.02426 -47.2051 
5.81968 10.92 -46.555 2.97435 14.3529 -45.818 9.77371 7.06173 -44.4161 
7.57496 11.3594 -43.6989 4.43614 15.1465 -42.8858 11.6691 7.0519 -41.3291 
9.2795 11.7227 -40.5497 5.86814 15.8385 -39.666 13.4864 6.99481 -37.966 
10.922 12.0076 -37.1295 7.26091 16.4245 -36.1812 15.2138 6.89118 -34.3492 
12.4916 12.2123 -33.4613 8.60523 16.901 -32.4546 16.8391 6.74124 -30.5022 
13.9773 12.335 -29.5688 9.89184 17.2641 -28.5105 18.3518 6.54623 -26.4513 
15.3697 12.3754 -25.4786 11.1123 17.5118 -24.3758 19.742 6.30751 -22.2238 
16.6594 12.3331 -21.2183 12.2586 17.6425 -20.0783 20.9998 6.02644 -17.8471 
17.8373 12.208 -16.8156 13.3226 17.655 -15.6462 22.1172 5.70526 -13.3512 
18.8962 12.0015 -12.3006 14.2977 17.5494 -11.1094 23.0869 5.34579 -8.76614 
19.8287 11.7147 -7.7034 15.1771 17.3266 -6.49848 23.9018 4.95059 -4.12228 
20.6283 11.3493 -3.05455 15.9549 16.9876 -1.84397 24.5571 4.52228 0.549127 
21.29 10.9082 1.61471 16.626 16.5351 2.82287 25.048 4.0637 5.21685 
21.8095 10.3941 6.27316 17.1861 15.9722 7.47081 25.3712 3.57794 9.84963 
22.1828 9.81038 10.8896 17.6309 15.3021 12.0687 25.5249 3.06825 14.4166 
22.4078 9.16105 15.4333 17.9579 14.5299 16.586 25.5079 2.53806 18.8871 
22.4831 8.45057 19.8737 18.1649 13.6605 20.9923 -6.99724 8.14291 -56.239 
-8.91268 8.7796 -55.893 -5.84188 10.1577 -55.2559 -7.4188 10.8921 -54.9522 
-9.05798 11.2268 -54.675 -4.8347 11.716 -53.909 -6.92079 12.6875 -53.5073 
-9.08924 13.1302 -53.1406 -3.7952 13.1959 -52.2018 -6.37653 14.398 -51.7047 
-9.05977 14.9459 -51.2509 -2.73038 14.5877 -50.1458 -5.78965 16.0124 -49.5567 
-8.96975 16.6617 -49.0189 -1.64715 15.8817 -47.7536 -5.16397 17.5194 -47.0763 
-8.8196 18.2658 -46.4581 -0.553002 17.0695 -45.0423 -4.50374 18.9094 -44.2815 
-8.61051 19.7479 -43.587 0.544844 18.1433 -42.0302 -3.81348 20.173 -41.1909 
-8.34392 21.098 -40.4247 1.63909 19.0955 -38.7361 -3.09757 21.3013 -37.8239 
-8.02134 22.3066 -36.9913 2.72238 19.92 -35.1832 -2.36111 22.2873 -34.2042 
-7.64517 23.3661 -33.3106 3.78745 20.6115 -31.3952 -1.60868 23.1244 -30.3561 
-7.21794 24.2697 -29.4075 4.82707 21.1647 -27.3968 -0.845593 23.8064 -26.3044 
-6.74232 25.0105 -25.3072 5.83454 21.5766 -23.2152 -0.0768322 24.3294 -22.0769 
-6.22161 25.584 -21.0377 6.80297 21.8442 -18.8787 0.692416 24.6899 -17.7019 
-5.65937 25.9868 -16.6278 7.72574 21.9654 -14.4155 1.45699 24.8847 -13.2083 
-5.05916 26.2152 -12.1063 8.597 21.9399 -9.85589 2.212 24.9132 -8.62631 
-4.42514 26.2684 -7.50389 9.41074 21.7677 -5.23049 2.95204 24.7754 -3.98672 
-3.76157 26.1462 -2.85137 10.1614 21.4496 -0.570028 3.67242 24.4714 0.679582 
-3.07277 25.8487 1.82027 10.8442 20.9882 4.09425 4.36821 24.004 5.34136 
-2.36343 25.3783 6.47974 11.4545 20.3864 8.73114 5.03477 23.376 9.9674 
-1.63831 24.7385 11.0959 11.988 19.6481 13.3095 5.66764 22.5913 14.5267 
-0.902198 23.9328 15.6377 12.4414 18.7784 17.799 6.26262 21.6558 18.9889 
-0.160058 22.9671 20.075 12.8116 17.7833 22.1695 6.81573 20.5755 23.3241 
0.583142 21.848 24.3781 -10.7138 8.41182 -55.6544 -10.6476 11.1257 -54.4444 
-12.0821 10.6093 -54.2744 -13.2646 9.71237 -54.1766 -11.1921 12.9965 -52.8355 
-13.0899 12.3133 -52.6106 -14.6541 11.1268 -52.4812 -11.6618 14.7804 -50.8734 
-14.0101 13.935 -50.5952 -15.9458 12.4669 -50.435 -12.0537 16.4656 -48.5715 
-14.8368 15.4636 -48.2417 -17.1309 13.7237 -48.0519 -12.3646 18.0404 -45.9438 
-15.564 16.8886 -45.5647 -18.2011 14.8884 -45.3465 -12.5931 19.4947 -43.0092 
-16.1872 18.2007 -42.5833 -19.1497 15.9537 -42.3382 -12.7373 20.8187 -39.7873 
-16.7022 19.3912 -39.3175 -19.9704 16.9124 -39.0471 -12.7962 22.0031 -36.2985 
-17.1053 20.4517 -35.7879 -20.6571 17.7577 -35.494 -12.7694 23.0404 -32.5672 
-17.394 21.3756 -32.0192 -21.2058 18.4843 -31.7038 -12.6575 23.9238 -28.6183 
-17.5666 22.1566 -28.0366 -21.6128 19.0874 -27.7018 -12.4606 24.6468 -24.4776 
-17.6213 22.789 -23.8661 -21.875 19.5626 -23.5141 -12.1805 25.2052 -20.1732 
-17.5583 23.2692 -19.5359 -21.9909 19.907 -19.1692 -11.819 25.5951 -15.7341 
-17.378 23.5939 -15.0754 -21.9599 20.1184 -14.6963 -11.3782 25.8134 -11.1895 
-17.0811 23.7603 -10.5138 -21.7817 20.1949 -10.1248 -10.8615 25.8591 -6.57007 
-16.6702 23.7681 -5.88178 -21.4579 20.1365 -5.48565 -10.2721 25.7322 -1.90678 
-16.1478 23.617 -1.21056 -20.9908 19.9435 -0.809859 -9.6139 25.4328 2.7693 
-15.5172 23.3076 3.46879 -20.3829 19.6169 3.87137 -8.89145 24.9634 7.42688 
-14.7829 22.8424 8.12497 -8.10951 24.327 12.0348 -13.9497 22.2246 12.7268 
-7.27329 23.5277 16.5621 -13.0231 21.4578 17.2434 -17.7624 17.863 17.6355 
-6.38846 22.5712 20.9787 -12.0095 20.5476 21.6447 -16.6427 17.0334 22.0281 
-5.46092 21.4638 25.255 -10.9156 19.5001 25.9014 -15.4117 16.0899 26.2734 
-11.9184 7.14674 -55.5863 -12.2072 5.31962 -55.7067 -14.1047 8.48513 -54.16 
-14.5566 7.02041 -54.2233 -14.5896 5.41734 -54.3621 -15.7655 9.5033 -52.4592 
-16.3633 7.56562 -52.5429 -16.4071 5.44493 -52.7266 -17.321 10.4579 -50.4079 
-18.0607 8.06027 -50.5115 -18.1148 5.43614 -50.7387 -18.7607 11.3427 -48.0197 
-19.6374 8.50108 -48.1425 -19.7015 5.39103 -48.4118 -20.0747 12.1515 -45.3095 
-21.0824 8.88486 -45.4507 -21.1562 5.30977 -45.7603 -21.2544 12.879 -42.2967 
-22.3866 9.20934 -42.4552 -22.4695 5.19303 -42.8031 -22.2922 13.5205 -39.0013 
-23.5412 9.47224 -39.1762 -23.6327 5.0416 -39.5599 -23.1806 14.0713 -35.4443 
-24.538 9.67167 -35.6343 -24.6373 4.85635 -36.0514 -23.9141 14.5282 -31.6504 
-25.3707 9.80632 -31.8544 -25.4773 4.63865 -32.302 -24.4877 14.8879 -27.6451 
-26.034 9.87567 -27.8616 -26.1472 4.38998 -28.3367 -24.8971 15.1478 -23.4545 
-26.5227 9.87868 -23.6821 -26.6417 4.11187 -24.1816 -25.1402 15.3065 -19.107 
-26.8342 9.81567 -19.3443 -26.9581 3.80626 -19.8647 -25.2154 15.3629 -14.6321 
-26.9664 9.6871 -14.8773 -27.0946 3.47525 -15.4153 -25.1214 15.3163 -10.059 
-26.9178 9.49352 -10.3105 -27.0493 3.12092 -10.8624 -24.8596 15.1674 -5.41854 
-26.6892 9.23665 -5.67476 -26.8232 2.74573 -6.23693 -24.4317 14.9171 -0.741975 
-26.2825 8.91792 -1.00115 -26.4179 2.3522 -1.5698 -23.84 14.5668 3.93957 
-25.6995 8.5395 3.67919 -25.8356 1.94291 3.10786 -23.089 14.1192 8.59481 
-24.9447 8.10399 8.33495 -25.0804 1.52062 7.76474 -24.0232 7.61426 12.935 
-24.1578 1.08818 12.3697 -21.1296 12.9443 17.7019 -22.9407 7.07355 17.4483 
-23.0732 0.648438 16.8918 -19.9344 12.2247 22.093 -21.705 6.48558 21.8451 
-21.8345 0.204365 21.301 -18.606 11.4236 26.3364 -20.3241 5.85424 26.0958 
-20.4498 -0.241069 25.5678 -11.4943 3.42003 -55.9846 -14.1882 3.78282 -54.5693 
-13.3926 2.22784 -54.8288 -12.2569 0.857648 -55.123 -15.8759 3.28266 -53.0007 
-14.8235 1.22558 -53.344 -13.3211 -0.587043 -53.7331 -17.4576 2.76055 -51.0779 
-16.1554 0.215122 -51.5026 -14.2963 -2.02782 -51.9842 -18.9226 2.21998 -48.8138 
-17.3792 -0.796739 -49.3172 -15.176 -3.45507 -49.8879 -20.2607 1.66454 -46.2224 
-18.4866 -1.80337 -46.801 -15.9539 -4.85915 -47.4571 -21.4635 1.09794 -43.3222 
-19.4704 -2.79785 -43.9722 -16.6251 -6.23071 -44.7093 -22.523 0.524058 -40.1326 
-20.3242 -3.77365 -40.8497 -17.1854 -7.56071 -41.6628 -23.4313 -0.0534059 -36.6737 
[...]
CELL_DATA 2304
FIELD FieldData 1
vtkOriginalCellIds 1 2304 vtkIdType
681 0 1 2 3 4 5 6 7 
8 9 10 11 12 13 14 30 31 
32 33 34 35 36 37 38 39 40 
41 42 43 44 45 46 47 66 67 
68 69 70 71 72 73 74 75 76 
77 78 79 80 81 82 83 102 103 
104 105 106 107 108 109 110 111 112 
113 114 115 116 117 118 119 138 139 
140 141 142 143 144 145 146 147 148 
149 150 151 152 153 154 155 174 175 
176 177 178 179 180 181 182 183 184 
185 186 187 188 189 190 191 210 211 
212 213 214 215 216 217 218 219 220 
221 222 223 224 225 226 227 246 247 
248 249 250 251 252 253 254 255 256 
257 258 259 260 261 262 263 300 301 
302 303 304 305 306 307 308 309 310 
311 312 313 314 330 331 332 333 334 
335 336 337 338 339 340 341 342 343 
344 345 346 347 366 367 368 369 370 
371 372 373 374 375 376 377 378 379 
380 381 382 383 402 403 404 405 406 
407 408 409 410 411 412 413 414 415 
416 417 418 419 438 439 440 441 442 
443 444 445 446 447 448 449 450 451 
452 453 454 455 474 475 476 477 478 
479 480 481 482 483 484 485 486 487 
488 489 490 491 510 511 512 513 514 
515 516 517 518 519 520 521 522 523 
524 525 526 527 546 547 548 549 550 
551 552 553 554 555 556 557 558 559 
560 561 562 563 600 601 602 603 604 
605 606 607 608 609 610 611 612 613 
614 630 631 632 633 634 635 636 637 
638 639 640 641 642 643 644 645 646 
647 666 667 668 669 670 671 672 673 
674 675 676 677 678 679 680 681 682 
683 702 703 704 705 706 707 708 709 
710 711 712 713 714 715 716 717 718 
719 738 739 740 741 742 743 744 745 
746 747 748 749 750 751 752 753 754 
755 774 775 776 777 778 779 780 781 
782 783 784 785 786 787 788 789 790 
791 810 811 812 813 814 815 816 817 
818 819 820 821 822 823 824 825 826 
827 846 847 848 849 850 851 852 853 
854 855 856 857 858 859 860 861 862 
863 900 901 902 903 904 905 906 907 
908 909 910 911 912 913 914 930 931 
932 933 934 935 936 937 938 939 940 
941 942 943 944 945 946 947 966 967 
968 969 970 971 972 973 974 975 976 
977 978 979 980 981 982 983 1002 1003 
1004 1005 1006 1007 1008 1009 1010 1011 1012 
1013 1014 1015 1016 1017 1018 1019 1038 1039 
1040 1041 1042 1043 1044 1045 1046 1047 1048 
1049 1050 1051 1052 1053 1054 1055 1074 1075 
1076 1077 1078 1079 1080 1081 1082 1083 1084 
1085 1086 1087 1088 1089 1090 1091 1110 1111 
1112 1113 1114 1115 1116 1117 1118 1119 1120 
1121 1122 1123 1124 1125 1126 1127 1146 1147 
1148 1149 1150 1151 1152 1153 1154 1155 1156 
1157 1158 1159 1160 1161 1162 1163 1200 1201 
1202 1203 1204 1205 1206 1207 1208 1209 1210 
1211 1212 1213 1214 1230 1231 1232 1233 1234 
1235 1236 1237 1238 1239 1240 1241 1242 1243 
1244 1245 1246 1247 1266 1267 1268 1269 1270 
1271 1272 1273 1274 1275 1276 1277 1278 1279 
1280 1281 1282 1283 1302 1303 1304 1305 1306 
1307 1308 1309 1310 1311 1312 1313 1314 1315 
1316 1317 1318 1319 1338 1339 1340 1341 1342 
1343 1344 1345 1346 1347 1348 1349 1350 1351 
1352 1353 1354 1355 1374 1375 1376 1377 1378 
1379 1380 1381 1382 1383 1384 1385 1386 1387 
1388 1389 1390 1391 1410 1411 1412 1413 1414 
1415 1416 1417 1418 1419 1420 1421 1423 1424 
1425 1426 1427 1446 1447 1448 1449 1450 1451 
1452 1453 1454 1455 1456 1457 1458 1459 1460 
1461 1462 1463 1500 1501 1502 1503 1504 1505 
1506 1507 1508 1509 1510 1511 1512 1513 1514 
1530 1531 1532 1533 1534 1535 1536 1537 1538 
1539 1540 1541 1542 1543 1544 1545 1546 1547 
1566 1567 1568 1569 1570 1571 1572 1573 1574 
1575 1576 1577 1578 1579 1580 1581 1582 1583 
1602 1603 1604 1605 1606 1607 1608 1609 1610 
1611 1612 1613 1614 1615 1616 1617 1618 1619 
1638 1639 1640 1641 1642 1643 1644 1645 1646 
1647 1648 1649 1650 1651 1652 1653 1654 1655 
1674 1675 1676 1677 1678 1679 1680 1681 1682 
1683 1684 1685 1686 1687 1688 1689 1690 1691 
1710 1711 1712 1713 1714 1715 1716 1717 1718 
1719 1720 1721 1722 1723 1724 1725 1726 1727 
1746 1747 1748 1749 1750 1751 1752 1753 1754 
1755 1756 1757 1758 1759 1760 1761 1762 1763 
1800 1801 1802 1803 1804 1805 1806 1807 1808 
1809 1810 1811 1812 1813 1814 1830 1831 1832 
1833 1834 1835 1836 1837 1838 1839 1840 1841 
1842 1843 1844 1845 1846 1847 1866 1867 1868 
1869 1870 1871 1872 1873 1874 1875 1876 1877 
1878 1879 1880 1881 1882 1883 1902 1903 1904 
1905 1906 1907 1908 1909 1910 1911 1912 1913 
1914 1915 1916 1917 1918 1919 1938 1939 1940 
1941 1942 1943 1944 1945 1946 1947 1948 1949 
1950 1951 1952 1953 1954 1955 1974 1975 1976 
1977 1978 1979 1980 1981 1982 1983 1984 1985 
1986 1987 1988 1989 1990 1991 2010 2011 2012 
2013 2014 2015 2016 2017 2018 2019 2020 2021 
2022 2023 2024 2025 2026 2027 2046 2047 2048 
2049 2050 2051 2052 2053 2054 2055 2056 2057 
2058 2059 2060 2061 2062 2063 2100 2101 2102 
2103 2104 2105 2106 2107 2108 2109 2110 2111 
2112 2113 2114 2130 2131 2132 2133 2134 2135 
2136 2137 2138 2139 2140 2141 2142 2143 2144 
2145 2146 2147 2166 2167 2168 2169 2170 2171 
2172 2173 2174 2175 2176 2177 2178 2179 2180 
2181 2182 2183 2202 2203 2204 2205 2206 2207 
2208 2209 2210 2211 2212 2213 2214 2215 2216 
2217 2218 2219 2238 2239 2240 2241 2242 2243 
2244 2245 2246 2247 2248 2249 2250 2251 2252 
2253 2254 2255 2274 2275 2276 2277 2278 2279 
2280 2281 2282 2283 2284 2285 2286 2287 2288 
2289 2290 2291 2310 2311 2312 2313 2314 2315 
2316 2317 2318 2319 2320 2321 2322 2323 2324 
2325 2326 2327 2346 2347 2348 2349 2350 2351 
2352 2353 2354 2355 2356 2357 2358 2359 2360 
2361 2362 2363 15 16 17 18 19 20 
21 22 23 24 25 26 27 28 29 
48 49 50 51 52 53 54 55 56 
57 58 59 60 61 62 63 64 65 
84 85 86 87 88 89 90 91 92 
93 94 95 96 97 98 99 100 101 
120 121 122 123 124 125 126 127 128 
129 130 131 132 133 134 135 136 137 
156 157 158 159 160 161 162 163 164 
165 166 167 168 169 170 171 172 173 
192 193 194 195 196 197 198 199 200 
201 202 203 204 205 206 207 208 209 
228 229 230 231 232 233 234 235 236 
237 238 239 240 241 242 243 244 245 
264 265 266 267 268 269 270 271 272 
273 274 275 276 277 278 279 280 281 
315 316 317 318 319 320 321 322 323 
324 325 326 327 328 329 348 349 350 
351 352 353 354 355 356 357 358 359 
360 361 362 363 364 365 384 385 386 
387 388 389 390 391 392 393 394 395 
396 397 398 399 400 401 420 421 422 
423 424 425 426 427 428 429 430 431 
432 433 434 435 436 437 456 457 458 
459 460 461 462 463 464 465 466 467 
468 469 470 471 472 473 492 493 494 
495 496 497 498 499 500 501 502 503 
504 505 506 507 508 509 528 529 530 
531 532 533 534 535 536 537 538 539 
540 541 542 543 544 545 564 565 566 
567 568 569 570 571 572 573 574 575 
576 577 578 579 580 581 615 616 617 
618 619 620 621 622 623 624 625 626 
627 628 629 648 649 650 651 652 653 
654 655 656 657 658 659 660 661 662 
663 664 665 684 685 686 687 688 689 
690 691 692 693 694 695 696 697 698 
699 700 701 720 721 722 723 724 725 
726 727 728 729 730 731 732 733 734 
735 736 737 756 757 758 759 760 761 
762 763 764 765 766 767 768 769 770 
771 772 773 792 793 794 795 796 797 
798 799 800 801 802 803 804 805 806 
807 808 809 828 829 830 831 832 833 
834 835 836 837 838 839 840 841 842 
843 844 845 864 865 866 867 868 869 
870 871 872 873 874 875 876 877 878 
879 880 881 915 916 917 918 919 920 
921 922 923 924 925 926 927 928 929 
948 949 950 951 952 953 954 955 956 
957 958 959 960 961 962 963 964 965 
984 985 986 987 988 989 990 991 992 
993 994 995 996 997 998 999 1000 1001 
1020 1021 1022 1023 1024 1025 1026 1027 1028 
1029 1030 1031 1032 1033 1034 1035 1036 1037 
1056 1057 1058 1059 1060 1061 1062 1063 1064 
1065 1066 1067 1068 1069 1070 1071 1072 1073 
1092 1093 1094 1095 1096 1097 1098 1099 1100 
1101 1102 1103 1104 1105 1106 1107 1108 1109 
1128 1129 1130 1131 1132 1133 1134 1135 1136 
1137 1138 1139 1140 1141 1142 1143 1144 1145 
1164 1165 1166 1167 1168 1169 1170 1171 1172 
1173 1174 1175 1176 1177 1178 1179 1180 1181 
1215 1216 1217 1218 1219 1220 1221 1222 1223 
1224 1225 1226 1227 1228 1229 1248 1249 1250 
1251 1252 1253 1254 1255 1256 1257 1258 1259 
1260 1261 1262 1263 1264 1265 1284 1285 1286 
1287 1288 1289 1290 1291 1292 1293 1294 1295 
1296 1297 1298 1299 1300 1301 1320 1321 1322 
1323 1324 1325 1326 1327 1328 1329 1330 1331 
1332 1333 1334 1335 1336 1337 1356 1357 1358 
1359 1360 1361 1362 1363 1364 1365 1366 1367 
1368 1369 1370 1371 1372 1373 1392 1393 1394 
1395 1396 1397 1398 1399 1400 1401 1402 1403 
1404 1405 1406 1407 1408 1409 1428 1429 1430 
1431 1432 1433 1434 1435 1436 1437 1438 1439 
1440 1441 1442 1443 1444 1445 1464 1465 1466 
1467 1468 1469 1470 1471 1472 1473 1474 1475 
1476 1477 1478 1479 1480 1481 1515 1516 1517 
1518 1519 1520 1521 1522 1523 1524 1525 1526 
1527 1528 1529 1548 1549 1550 1551 1552 1553 
1554 1555 1556 1557 1558 1559 1560 1561 1562 
1563 1564 1565 1584 1585 1586 1587 1588 1589 
1590 1591 1592 1593 1594 1595 1596 1597 1598 
1599 1600 1601 1620 1621 1622 1623 1624 1625 
1626 1627 1628 1629 1630 1631 1632 1633 1634 
1635 1636 1637 1656 1657 1658 1659 1660 1661 
1662 1663 1664 1665 1666 1667 1668 1669 1670 
1671 1672 1673 1692 1693 1694 1695 1696 1697 
1698 1699 1700 1701 1702 1703 1704 1705 1706 
1707 1708 1709 1728 1729 1730 1731 1732 1733 
1734 1735 1736 1737 1738 1739 1740 1741 1742 
1743 1744 1745 1764 1765 1766 1767 1768 1769 
1770 1771 1772 1773 1774 1775 1776 1777 1778 
1779 1780 1781 1815 1816 1817 1818 1819 1820 
1821 1822 1823 1824 1825 1826 1827 1828 1829 
1848 1849 1850 1851 1852 1853 1854 1855 1856 
1857 1858 1859 1860 1861 1862 1863 1864 1865 
1884 1885 1886 1887 1888 1889 1890 1891 1892 
1893 1894 1895 1896 1897 1898 1899 1900 1901 
1920 1921 1922 1923 1924 1925 1926 1927 1928 
1929 1930 1931 1932 1933 1934 1935 1936 1937 
1956 1957 1958 1959 1960 1961 1962 1963 1964 
1965 1966 1967 1968 1969 1970 1971 1972 1973 
1992 1993 1994 1995 1996 1997 1998 1999 2000 
2001 2002 2003 2004 2005 2006 2007 2008 2009 
2028 2029 2030 2031 2032 2033 2034 2035 2036 
2037 2038 2039 2040 2041 2042 2043 2044 2045 
2064 2065 2066 2067 2068 2069 2070 2071 2072 
2073 2074 2075 2076 2077 2078 2079 2080 2081 
2115 2116 2117 2118 2119 2120 2121 2122 2123 
2124 2125 2126 2127 2128 2129 2148 2149 2150 
2151 2152 2153 2154 2155 2156 2157 2158 2159 
2160 2161 2162 2163 2164 2165 2184 2185 2186 
2187 2188 2189 2190 2191 2192 2193 2194 2195 
2196 2197 2198 2199 2200 2201 2220 2221 2222 
2223 2224 2225 2226 2227 2228 2229 2230 2231 
2232 2233 2234 2235 2236 2237 2256 2257 2258 
2259 2260 2261 2262 2263 2264 2265 2266 2267 
2268 2269 2270 2271 2272 2273 2292 2293 2294 
2295 2296 2297 2298 2299 2300 2301 2302 2303 
2304 2305 2306 2307 2308 2309 2328 2329 2330 
2331 2332 2333 2334 2335 2336 2337 2338 2339 
2340 2341 2342 2343 2344 2345 2364 2365 2366 
2367 2368 2369 2370 2371 2372 2373 2374 2375 
2376 2377 2378 2379 2380 2381 0 1 2 
3 4 5 6 7 9 10 11 14 
15 17 18 19 20 21 22 23 24 
25 26 28 30 31 36 37 38 40 
41 42 45 46 49 50 51 54 56 
57 60 62 63 64 65 66 68 69 

POINT_DATA 1082
FIELD FieldData 1
vtkOriginalPointIds 1 1082 vtkIdType
300 373 303 0 5 8 9 10 11 
12 26 27 28 29 30 31 32 33 
34 35 36 37 50 51 52 53 54 
55 56 57 58 59 60 61 74 75 
76 77 78 79 80 81 82 83 84 
85 98 99 100 101 102 103 104 105 
106 107 108 109 122 123 124 125 126 
127 128 129 130 131 132 133 146 147 
148 149 150 151 152 153 154 155 156 
157 170 171 172 173 174 175 176 177 
25 43 24 26 206 208 209 210 220 
221 222 223 224 225 226 227 228 238 
239 240 241 242 243 244 245 246 256 
257 258 259 260 261 262 263 264 274 
275 276 277 278 279 280 281 282 292 
293 294 295 296 297 298 299 300 310 
311 312 313 314 315 316 317 318 328 
329 330 331 332 333 28 27 29 355 
357 358 359 360 370 371 372 373 374 
375 376 377 378 388 389 390 391 392 
393 394 395 396 406 407 408 409 410 
411 412 413 414 424 425 426 427 428 
429 430 431 432 442 443 444 445 446 
447 448 449 450 460 461 462 463 464 
465 466 467 468 478 479 480 481 482 
483 44 31 30 506 508 509 510 520 
521 522 523 524 525 526 527 528 538 
539 540 541 542 543 544 545 546 556 
557 558 559 560 561 562 563 564 574 
575 576 577 578 579 580 581 582 592 
593 594 595 596 597 598 599 600 610 
611 612 613 614 616 617 628 629 630 
631 632 633 33 32 39 655 657 658 
659 660 670 671 672 673 674 675 676 
677 678 688 689 690 691 692 693 694 
695 696 706 707 708 709 710 711 712 
713 714 724 725 726 727 728 729 730 
731 732 742 743 744 745 746 747 748 
749 750 760 761 762 763 764 765 767 
768 778 779 780 781 782 783 45 41 
40 806 808 809 810 820 821 822 823 
824 825 826 827 828 838 839 840 841 
842 843 844 845 846 856 857 858 859 
860 861 862 863 864 874 875 876 877 
878 879 880 881 882 892 893 894 895 
896 897 898 899 900 910 911 912 913 
914 915 916 917 918 928 929 930 931 
932 933 35 34 38 955 957 958 959 
960 970 971 972 973 974 975 976 977 
978 988 989 990 991 992 993 994 995 
996 1006 1007 1008 1009 1010 1011 1012 1013 
1014 1024 1025 1026 1027 1028 1029 1030 1031 
1032 1042 1043 1044 1045 1046 1047 1048 1049 
1050 1060 1061 1062 1063 1064 1065 1066 1067 
1068 1078 1079 1080 1081 1082 1083 46 37 
36 1105 1106 1107 1114 1115 1116 1117 1118 
1119 1126 1127 1128 1129 1130 1131 1138 1139 
1140 1141 1142 1143 1150 1151 1152 1153 1154 
1155 1162 1163 1164 1165 1166 1167 1174 1175 
1176 1177 1178 1179 1186 1187 1188 1189 42 
47 13 18 21 22 23 24 25 38 
39 40 41 42 43 44 45 46 47 
48 49 62 63 64 65 66 67 68 
69 70 71 72 73 86 87 88 89 
90 91 92 93 94 95 96 97 110 
111 112 113 114 115 116 117 118 119 
120 121 134 135 136 137 138 139 140 
141 142 143 144 145 158 159 160 161 
162 163 164 165 166 167 168 169 182 
183 184 185 186 187 188 189 2 1 
3 4 215 217 218 219 229 230 231 
232 233 234 235 236 237 247 248 249 
250 251 252 253 254 255 265 266 267 
268 269 270 271 272 273 283 284 285 
286 287 288 289 290 291 301 302 303 
304 305 306 307 308 309 319 320 321 
322 323 324 325 326 327 337 338 339 
340 341 342 5 21 6 364 366 367 
368 369 379 380 381 382 383 384 385 
386 387 397 398 399 400 401 402 403 
404 405 415 416 417 418 419 420 421 
422 423 433 434 435 436 437 438 439 
440 441 451 452 453 454 455 456 457 
458 459 469 470 471 472 473 474 475 
476 477 487 488 489 490 491 492 7 
8 9 515 517 518 519 529 530 531 
532 533 534 535 536 537 547 548 549 
550 551 552 553 554 555 565 566 567 
568 569 570 571 572 573 583 584 585 
586 587 588 589 590 591 601 602 603 
604 605 606 607 608 609 619 620 621 
622 623 624 625 626 627 637 638 639 
640 641 642 10 22 13 664 666 667 
668 669 679 680 681 682 683 684 685 
686 687 697 698 699 700 701 702 703 
704 705 715 716 717 718 719 720 721 
722 723 733 734 735 736 737 738 739 
740 741 751 752 753 754 755 756 757 
758 759 769 770 771 772 773 774 775 
776 777 787 788 789 790 791 792 14 
15 16 815 817 818 819 829 830 831 
832 833 834 835 836 837 847 848 849 
850 851 852 853 854 855 865 866 867 
868 869 870 871 872 873 883 884 885 
886 887 888 889 890 891 901 902 903 
904 905 906 907 908 909 919 920 921 
922 923 924 925 926 927 937 938 939 
940 941 942 17 23 18 964 966 967 
968 969 979 980 981 982 983 984 985 
986 987 997 998 999 1000 1001 1002 1003 
1004 1005 1015 1016 1017 1018 1019 1020 1021 
1022 1023 1033 1034 1035 1036 1037 1038 1039 
1040 1041 1051 1052 1053 1054 1055 1056 1057 
1058 1059 1069 1070 1071 1072 1073 1074 1075 
1076 1077 1087 1088 1089 1090 1091 1092 19 
20 11 1111 1112 1113 1120 1121 1122 1123 
1124 1125 1132 1133 1134 1135 1136 1137 1144 
1145 1146 1147 1148 1149 1156 1157 1158 1159 
1160 1161 1168 1169 1170 1171 1172 1173 1180 
1181 1182 1183 1184 1185 1192 1193 1194 1195 
12 0 
