# vtk DataFile Version 5.1
vtk output
ASCII
DATASET POLYDATA
POINTS 1082 float
-18.2969 14.8192 1.38988 -21.6905 10.0794 4.31425 -19.7767 13.5537 5.88595 
20.0114 13.8793 -55.0475 22.4877 11.9214 -53.7614 22.4863 13.2542 -53.4259 
24.0185 10.4873 -52.4736 23.5484 9.63385 -52.8596 24.178 11.5415 -52.1498 
24.0161 12.7252 -51.9102 25.0436 9.20558 -50.9031 24.4217 8.07659 -51.4138 
25.2546 10.6002 -50.4747 25.0405 12.1661 -50.1578 25.9012 7.86237 -48.9924 
25.1317 6.46535 -49.6244 26.1624 9.58808 -48.4624 25.8975 11.5256 -48.0702 
26.5859 6.46666 -46.7544 25.6739 4.81089 -47.5034 26.8954 8.51187 -46.1262 
26.5814 10.8082 -45.6614 27.0923 5.02748 -44.2029 26.0439 3.12418 -45.0639 
27.448 7.3786 -43.4808 27.0871 10.0183 -42.9464 27.4176 3.5548 -41.356 
26.2399 1.41664 -42.3233 27.8173 6.196 -40.5448 27.4119 9.16151 -39.9445 
27.5599 2.05838 -38.233 26.2607 -0.300416 -39.3 28.0008 4.97205 -37.338 
27.5535 8.2435 -36.6758 27.5172 0.548088 -34.8534 26.1052 -2.01542 -36.0131 
27.9965 3.7147 -33.8808 27.5103 7.27018 -33.1611 27.2908 -0.965863 -31.2409 
25.7753 -3.71694 -32.4855 27.8049 2.43265 -30.1971 27.2832 6.24829 -29.4247 
26.8819 -2.47332 -27.4198 25.2733 -5.39369 -28.7409 27.4278 1.13418 -26.3118 
26.874 5.18464 -25.4918 26.2928 -3.96414 -23.4149 24.6018 -7.03425 -24.8037 
26.8667 -0.171775 -22.2501 26.2846 4.08625 -21.3881 25.5281 -5.42859 -19.2533 
23.7659 -8.6278 -20.7006 26.1261 -1.47662 -18.0395 25.5194 2.96054 -17.1413 
24.5928 -6.85669 -14.9633 22.7712 -10.1637 -16.4593 25.211 -2.77157 -13.7086 
24.5838 1.81506 -12.7801 23.4925 -8.23878 -10.5729 21.6238 -11.6314 -12.1076 
24.1267 -4.04792 -9.28568 23.4834 0.657412 -8.33318 22.2354 -9.56593 -6.11178 
20.3319 -13.0215 -7.67499 22.8812 -5.29733 -4.80073 22.226 -0.504639 -3.83054 
20.8296 -10.8291 -1.60987 18.9042 -14.3245 -3.19111 21.4829 -6.51123 -0.283677 
20.8201 -1.66332 0.697694 19.2842 -12.0197 2.90284 17.3497 -15.5315 1.31417 
19.9406 -7.68156 4.23526 19.2747 -2.81084 5.22124 17.6099 -13.1299 7.39615 
15.6793 -16.6347 5.81067 18.265 -8.80053 8.7259 17.6003 -3.93958 9.70987 
15.8179 -14.1524 11.84 13.9042 -17.6267 10.2683 16.4673 -9.86064 13.1582 
15.8085 -5.04199 14.1336 13.9199 -15.0801 16.2045 12.0358 -18.5006 14.6572 
14.5592 -10.8547 17.5023 13.9106 -6.11061 18.4627 11.9289 -15.9069 20.4608 
10.087 -19.2509 18.9481 12.554 -11.7762 21.7295 11.9198 -7.13839 22.6683 
9.85818 -16.6275 24.5802 8.0708 -19.8725 23.1123 10.4647 -12.619 25.8114 
9.84931 -8.11846 26.7224 21.7463 14.7055 -53.329 23.5339 13.9602 -51.7741 
22.7736 15.1619 -51.7475 21.7867 16.2489 -51.8322 24.4025 13.7999 -49.9778 
23.3967 15.3896 -49.9426 22.0912 16.8276 -50.0546 25.108 13.5473 -47.8474 
23.8634 15.5144 -47.8039 22.248 17.2939 -47.9425 25.6457 13.2043 -45.3974 
24.1707 15.5356 -45.3458 22.2561 17.6446 -45.5101 26.0115 12.7727 -42.6429 
24.3159 15.4527 -42.5836 22.1151 17.877 -42.7725 26.2035 12.2558 -39.6036 
24.2987 15.2665 -39.537 21.8262 17.9899 -39.7491 26.2205 11.6569 -36.2997 
24.1191 14.9783 -36.2262 21.3916 17.9827 -36.4602 26.0616 10.98 -32.7523 
23.7778 14.5896 -32.6725 20.8135 17.8548 -32.9268 25.7285 10.2296 -28.9861 
23.2776 14.1035 -28.9004 20.0963 17.6076 -29.1733 25.2236 9.41092 -25.0262 
22.6219 13.5231 -24.9352 19.2449 17.2428 -25.225 24.5496 8.52913 -20.8986 
21.8145 12.852 -20.803 18.2644 16.7625 -21.1076 23.7114 7.5903 -16.6312 
20.8613 12.0951 -16.5315 17.1619 16.17 -16.8489 22.715 6.6008 -12.2529 
19.7688 11.2574 -12.1498 15.9447 15.4696 -12.4779 21.5661 5.56699 -7.79228 
18.5436 10.3442 -7.68657 14.6206 14.6654 -8.02316 20.2731 4.4961 -3.2796 
17.1947 9.36185 -3.17189 13.1988 13.7633 -3.51476 18.8448 3.39504 1.25498 
15.7307 8.31695 1.36392 11.6888 12.7691 1.0171 17.29 2.2713 5.78115 
14.1614 7.2163 5.89059 10.1005 11.6894 5.54214 15.6198 1.13236 10.2687 
12.4974 6.06744 10.3779 8.44459 10.5315 10.0301 13.8451 -0.0141721 14.6876 
10.7499 4.87801 14.7958 6.73235 9.30333 14.4511 11.9776 -1.16058 19.008 
8.93029 3.6559 19.1146 4.97493 8.01272 18.7752 10.0301 -2.29925 23.2015 
7.05101 2.40933 23.3057 3.1843 6.66861 22.9739 8.01558 -3.42253 27.2398 
5.12467 1.14671 27.341 1.37238 5.27992 27.019 20.4723 15.8848 -53.4948 
19.0021 16.4797 -53.8792 20.6346 17.1421 -52.0258 19.3998 17.7873 -52.312 
18.166 18.141 -52.6713 20.567 18.0092 -50.3108 18.9335 18.8628 -50.6894 
17.3014 19.3306 -51.1647 20.362 18.7559 -48.2595 18.3407 19.8122 -48.7279 
16.3211 20.3911 -49.3162 20.0209 19.3773 -45.8858 17.6254 20.6292 -46.441 
15.2318 21.3152 -47.1381 19.5456 19.8689 -43.2043 16.7919 21.3079 -43.8426 
14.0403 22.0966 -44.644 18.9397 20.2276 -40.2343 15.8462 21.8442 -40.9512 
12.7551 22.7302 -41.8516 18.2073 20.4512 -36.9955 14.7946 22.2346 -37.7864 
11.3846 23.212 -38.7796 17.3527 20.5377 -33.5084 13.6438 22.4759 -34.3681 
9.93777 23.5381 -35.4475 16.3822 20.4869 -29.7975 12.4018 22.5669 -30.7201 
8.42454 23.7069 -31.8785 15.3023 20.2993 -25.8876 11.077 22.5073 -26.8669 
6.855 23.7175 -28.0966 14.1198 19.9755 -21.8042 9.67794 22.2967 -22.8336 
5.23955 23.5689 -24.1264 12.8429 19.5183 -17.5748 8.21414 21.9371 -18.6476 
3.58905 23.2628 -19.9948 11.4802 18.9307 -13.2283 6.6955 21.431 -14.3372 
1.91459 22.8014 -15.7297 10.0405 18.216 -8.79295 5.13192 20.7811 -9.93061 
0.227295 22.187 -11.3591 8.53373 17.3798 -4.2988 3.53416 19.9924 -5.45757 
-1.46153 21.4243 -6.91262 6.96994 16.4274 0.224011 1.91266 19.0701 -0.948133 
-3.1406 20.5186 -2.41994 5.35942 15.3648 4.74533 0.278415 18.02 3.5677 
-4.7986 19.4752 2.08896 3.71311 14.1996 9.23496 -1.35772 16.8494 8.05968 
-6.42452 18.3017 6.5839 2.04196 12.9395 13.6628 -2.98478 15.5662 12.4978 
-8.00752 17.0059 11.0348 0.35713 11.5926 17.9991 -4.59182 14.1787 16.8521 
-9.53685 15.5961 15.4118 -1.33012 10.1682 22.2152 -6.1682 12.6965 21.0939 
-11.0025 14.0821 19.6858 -3.00841 8.67599 26.2827 -7.70332 11.1294 25.1946 
-12.3945 12.474 23.8282 17.7317 16.3242 -54.3803 17.0189 18.1691 -53.0813 
16.033 17.8799 -53.5126 15.275 17.293 -53.9361 15.7839 19.3678 -51.707 
14.4797 18.9852 -52.2776 13.4769 18.2088 -52.8379 14.4434 20.437 -49.9872 
12.8295 19.9637 -50.6932 11.5887 19.0029 -51.3865 13.0064 21.3698 -47.9334 
11.0937 20.8087 -48.7702 9.62309 19.6701 -49.5918 11.4821 22.1592 -45.5582 
9.28336 21.5143 -46.5201 7.59293 20.2054 -47.4646 9.88114 22.8006 -42.8786 
7.41111 22.0761 -43.9592 5.51208 20.6056 -45.0203 8.21421 23.2897 -39.9126 
5.48936 22.4904 -41.1047 3.39436 20.8683 -42.2752 6.49211 23.6226 -36.6788 
3.53071 22.7539 -37.9744 1.25391 20.9909 -39.2466 4.72676 23.7975 -33.1999 
1.54848 22.8653 -34.5904 -0.8949 20.9733 -35.9557 2.92966 23.8136 -29.4993 
-0.444059 22.824 -30.9753 -3.0378 20.8156 -32.4246 1.11306 23.67 -25.601 
-2.43354 22.6296 -27.1526 -5.1603 20.5183 -28.6762 -0.711054 23.3681 -21.5314 
-4.40692 22.2841 -23.1483 -7.24831 20.0839 -24.736 -2.53036 22.9102 -17.3181 
-6.35074 21.7896 -18.9895 -9.28787 19.5153 -20.6307 -4.33269 22.2987 -12.9887 
-8.25196 21.149 -14.7033 -11.2652 18.8159 -16.387 -6.10617 21.5381 -8.5724 
-10.0982 20.3672 -10.3188 -13.1672 17.9907 -12.0337 -7.83875 20.6336 -4.09885 
-11.8768 19.4492 -5.86544 -14.9813 17.0453 -7.60009 -9.51886 19.5908 0.402162 
-13.5758 18.4008 -1.37272 -16.6949 15.9857 -3.11552 -11.1353 18.4171 4.9005 
-15.1842 17.2295 3.12918 -12.6773 17.1203 9.36606 -16.691 15.943 7.61014 
-14.1344 15.7087 13.7689 -18.086 14.5497 12.0401 -21.1239 12.1973 10.3426 
-15.4971 14.1923 18.0797 -19.36 13.0591 16.3897 -22.3301 10.7595 14.7302 
-16.7561 12.5809 22.2696 -20.5048 11.4813 20.6296 -23.3869 9.24973 19.0192 
17.0003 15.4664 -54.8624 17.0017 14.1336 -55.198 14.805 16.4396 -54.3222 
14.6454 15.3853 -54.646 14.8073 14.2017 -54.8856 12.855 17.0798 -53.3486 
12.644 15.6852 -53.777 12.8581 14.1193 -54.0939 10.8192 17.6059 -52.0185 
10.5581 15.8802 -52.5485 10.823 13.9426 -52.9408 8.71116 18.0143 -50.3408 
8.40162 15.9691 -50.969 8.71563 13.6728 -51.4339 6.54456 18.3021 -48.3256 
6.18883 15.951 -49.0477 6.54973 13.3112 -49.5821 4.33434 18.4675 -45.9875 
3.93465 15.8263 -46.7988 4.34012 12.8608 -47.3991 2.09517 18.5095 -43.3423 
1.65422 15.5958 -44.2372 2.10152 12.3244 -44.8994 -0.158124 18.4274 -40.4062 
-0.637335 15.2608 -41.3788 -0.151151 11.7053 -42.0986 -2.41037 18.2222 -37.2002 
-2.92454 14.8237 -38.244 -2.40283 11.008 -39.0164 -4.64646 17.8952 -33.7457 
-5.19233 14.2877 -34.8537 -4.63855 10.2373 -35.6737 -6.85133 17.4482 -30.065 
-7.42521 13.6559 -31.2298 -6.84306 9.39783 -32.0918 -9.01056 16.8847 -26.1832 
-9.60854 12.9327 -27.397 -9.00185 8.49556 -28.2952 -11.1095 16.2083 -22.1267 
-11.7276 12.1232 -23.3814 -11.1005 7.53658 -24.3099 -13.1339 15.4232 -17.9217 
-13.7681 11.2324 -19.2089 -13.1247 6.52704 -20.1614 -15.0707 14.5352 -13.5969 
-15.7165 10.2666 -14.908 -15.0613 5.47387 -15.8782 -16.9067 13.5499 -9.18134 
-17.56 9.23206 -10.5075 -16.8972 4.38415 -11.4889 -18.6293 12.4738 -4.7042 
-19.2858 8.13574 -6.03662 -18.6198 3.26503 -7.02259 -20.2275 11.3144 -0.195611 
-20.8826 6.98503 -1.52536 -20.2179 2.12407 -2.50933 -22.3399 5.7876 2.99608 
-21.681 0.968951 2.02064 -23.0081 8.7768 8.79524 -23.6474 4.55141 7.49747 
-22.9988 -0.192686 6.53712 -24.1719 7.41551 13.2175 -24.797 3.28482 11.9487 
-24.1628 -1.35303 11.0099 -25.1742 6.00474 17.5513 -25.7808 1.99627 16.3201 
-25.1654 -2.50432 15.4091 17.7418 12.6823 -55.2949 15.2896 12.9666 -55.0217 
16.0499 11.7649 -55.0482 17.0367 10.6779 -54.9636 13.4961 12.4855 -54.2739 
14.5019 10.8958 -54.3091 15.8074 9.45777 -54.1971 11.6125 11.921 -53.1635 
12.8571 9.95383 -53.207 14.4725 8.17442 -53.0684 9.65127 11.2767 -51.6979 
11.1263 8.94538 -51.7494 13.0409 6.83643 -51.5852 7.62534 10.5569 -49.8855 
9.32092 7.87688 -49.9449 11.5218 5.45261 -49.756 5.54844 9.76652 -47.74 
7.4533 6.75582 -47.8066 9.92575 4.0324 -47.5945 3.43449 8.91093 -45.2755 
5.5359 5.58963 -45.349 8.26338 2.58521 -45.115 1.2975 7.99552 -42.5073 
3.58131 4.38589 -42.5872 6.5456 1.1207 -42.3328 -0.848126 7.02678 -39.4551 
1.60279 3.15286 -39.5408 4.7841 -0.351279 -39.2678 -2.98813 6.01097 -36.1393 
-0.386407 1.89879 -36.2303 2.9906 -1.82096 -35.9405 -5.10804 4.95495 -32.5812 
[...]
CELL_DATA 2304
FIELD FieldData 1
vtkOriginalCellIds 1 2304 vtkIdType
681 0 1 2 3 4 5 6 7 
8 9 10 11 12 13 14 30 31 
32 33 34 35 36 37 38 39 40 
41 42 43 44 45 46 47 66 67 
68 69 70 71 72 73 74 75 76 
77 78 79 80 81 82 83 102 103 
104 105 106 107 108 109 110 111 112 
113 114 115 116 117 118 119 138 139 
140 141 142 143 144 145 146 147 148 
149 150 151 152 153 154 155 174 175 
176 177 178 179 180 181 182 183 184 
185 186 187 188 189 190 191 210 211 
212 213 214 215 216 217 218 219 220 
221 222 223 224 225 226 227 246 247 
248 249 250 251 252 253 254 255 256 
257 258 259 260 261 262 263 300 301 
302 303 304 305 306 307 308 309 310 
311 312 313 314 330 331 332 333 334 
335 336 337 338 339 340 341 342 343 
344 345 346 347 366 367 368 369 370 
371 372 373 374 375 376 377 378 379 
380 381 382 383 402 403 404 405 406 
407 408 409 410 411 412 413 414 415 
416 417 418 419 438 439 440 441 442 
443 444 445 446 447 448 449 450 451 
452 453 454 455 474 475 476 477 478 
479 480 481 482 483 484 485 486 487 
488 489 490 491 510 511 512 513 514 
515 516 517 518 519 520 521 522 523 
524 525 526 527 546 547 548 549 550 
551 552 553 554 555 556 557 558 559 
560 561 562 563 600 601 602 603 604 
605 606 607 608 609 610 611 612 613 
614 630 631 632 633 634 635 636 637 
638 639 640 641 642 643 644 645 646 
647 666 667 668 669 670 671 672 673 
674 675 676 677 678 679 680 681 682 
683 702 703 704 705 706 707 708 709 
710 711 712 713 714 715 716 717 718 
719 738 739 740 741 742 743 744 745 
746 747 748 749 750 751 752 753 754 
755 774 775 776 777 778 779 780 781 
782 783 784 785 786 787 788 789 790 
791 810 811 812 813 814 815 816 817 
818 819 820 821 822 823 824 825 826 
827 846 847 848 849 850 851 852 853 
854 855 856 857 858 859 860 861 862 
863 900 901 902 903 904 905 906 907 
908 909 910 911 912 913 914 930 931 
932 933 934 935 936 937 938 939 940 
941 942 943 944 945 946 947 966 967 
968 969 970 971 972 973 974 975 976 
977 978 979 980 981 982 983 1002 1003 
1004 1005 1006 1007 1008 1009 1010 1011 1012 
1013 1014 1015 1016 1017 1018 1019 1038 1039 
1040 1041 1042 1043 1044 1045 1046 1047 1048 
1049 1050 1051 1052 1053 1054 1055 1074 1075 
1076 1077 1078 1079 1080 1081 1082 1083 1084 
1085 1086 1087 1088 1089 1090 1091 1110 1111 
1112 1113 1114 1115 1116 1117 1118 1119 1120 
1121 1122 1123 1124 1125 1126 1127 1146 1147 
1148 1149 1150 1151 1152 1153 1154 1155 1156 
1157 1158 1159 1160 1161 1162 1163 1200 1201 
1202 1203 1204 1205 1206 1207 1208 1209 1210 
1211 1212 1213 1214 1230 1231 1232 1233 1234 
1235 1236 1237 1238 1239 1240 1241 1242 1243 
1244 1245 1246 1247 1266 1267 1268 1269 1270 
1271 1272 1273 1274 1275 1276 1277 1278 1279 
1280 1281 1282 1283 1302 1303 1304 1305 1306 
1307 1308 1309 1310 1311 1312 1313 1314 1315 
1316 1317 1318 1319 1338 1339 1340 1341 1342 
1343 1344 1345 1346 1347 1348 1349 1350 1351 
1352 1353 1354 1355 1374 1375 1376 1377 1378 
1379 1380 1381 1382 1383 1384 1385 1386 1387 
1388 1389 1390 1391 1410 1411 1412 1413 1414 
1415 1416 1417 1418 1419 1420 1421 1423 1424 
1425 1426 1427 1446 1447 1448 1449 1450 1451 
1452 1453 1454 1455 1456 1457 1458 1459 1460 
1461 1462 1463 1500 1501 1502 1503 1504 1505 
1506 1507 1508 1509 1510 1511 1512 1513 1514 
1530 1531 1532 1533 1534 1535 1536 1537 1538 
1539 1540 1541 1542 1543 1544 1545 1546 1547 
1566 1567 1568 1569 1570 1571 1572 1573 1574 
1575 1576 1577 1578 1579 1580 1581 1582 1583 
1602 1603 1604 1605 1606 1607 1608 1609 1610 
1611 1612 1613 1614 1615 1616 1617 1618 1619 
1638 1639 1640 1641 1642 1643 1644 1645 1646 
1647 1648 1649 1650 1651 1652 1653 1654 1655 
1674 1675 1676 1677 1678 1679 1680 1681 1682 
1683 1684 1685 1686 1687 1688 1689 1690 1691 
1710 1711 1712 1713 1714 1715 1716 1717 1718 
1719 1720 1721 1722 1723 1724 1725 1726 1727 
1746 1747 1748 1749 1750 1751 1752 1753 1754 
1755 1756 1757 1758 1759 1760 1761 1762 1763 
1800 1801 1802 1803 1804 1805 1806 1807 1808 
1809 1810 1811 1812 1813 1814 1830 1831 1832 
1833 1834 1835 1836 1837 1838 1839 1840 1841 
1842 1843 1844 1845 1846 1847 1866 1867 1868 
1869 1870 1871 1872 1873 1874 1875 1876 1877 
1878 1879 1880 1881 1882 1883 1902 1903 1904 
1905 1906 1907 1908 1909 1910 1911 1912 1913 
1914 1915 1916 1917 1918 1919 1938 1939 1940 
1941 1942 1943 1944 1945 1946 1947 1948 1949 
1950 1951 1952 1953 1954 1955 1974 1975 1976 
1977 1978 1979 1980 1981 1982 1983 1984 1985 
1986 1987 1988 1989 1990 1991 2010 2011 2012 
2013 2014 2015 2016 2017 2018 2019 2020 2021 
2022 2023 2024 2025 2026 2027 2046 2047 2048 
2049 2050 2051 2052 2053 2054 2055 2056 2057 
2058 2059 2060 2061 2062 2063 2100 2101 2102 
2103 2104 2105 2106 2107 2108 2109 2110 2111 
2112 2113 2114 2130 2131 2132 2133 2134 2135 
2136 2137 2138 2139 2140 2141 2142 2143 2144 
2145 2146 2147 2166 2167 2168 2169 2170 2171 
2172 2173 2174 2175 2176 2177 2178 2179 2180 
2181 2182 2183 2202 2203 2204 2205 2206 2207 
2208 2209 2210 2211 2212 2213 2214 2215 2216 
2217 2218 2219 2238 2239 2240 2241 2242 2243 
2244 2245 2246 2247 2248 2249 2250 2251 2252 
2253 2254 2255 2274 2275 2276 2277 2278 2279 
2280 2281 2282 2283 2284 2285 2286 2287 2288 
2289 2290 2291 2310 2311 2312 2313 2314 2315 
2316 2317 2318 2319 2320 2321 2322 2323 2324 
2325 2326 2327 2346 2347 2348 2349 2350 2351 
2352 2353 2354 2355 2356 2357 2358 2359 2360 
2361 2362 2363 15 16 17 18 19 20 
21 22 23 24 25 26 27 28 29 
48 49 50 51 52 53 54 55 56 
57 58 59 60 61 62 63 64 65 
84 85 86 87 88 89 90 91 92 
93 94 95 96 97 98 99 100 101 
120 121 122 123 124 125 126 127 128 
129 130 131 132 133 134 135 136 137 
156 157 158 159 160 161 162 163 164 
165 166 167 168 169 170 171 172 173 
192 193 194 195 196 197 198 199 200 
201 202 203 204 205 206 207 208 209 
228 229 230 231 232 233 234 235 236 
237 238 239 240 241 242 243 244 245 
264 265 266 267 268 269 270 271 272 
273 274 275 276 277 278 279 280 281 
315 316 317 318 319 320 321 322 323 
324 325 326 327 328 329 348 349 350 
351 352 353 354 355 356 357 358 359 
360 361 362 363 364 365 384 385 386 
387 388 389 390 391 392 393 394 395 
396 397 398 399 400 401 420 421 422 
423 424 425 426 427 428 429 430 431 
432 433 434 435 436 437 456 457 458 
459 460 461 462 463 464 465 466 467 
468 469 470 471 472 473 492 493 494 
495 496 497 498 499 500 501 502 503 
504 505 506 507 508 509 528 529 530 
531 532 533 534 535 536 537 538 539 
540 541 542 543 544 545 564 565 566 
567 568 569 570 571 572 573 574 575 
576 577 578 579 580 581 615 616 617 
618 619 620 621 622 623 624 625 626 
627 628 629 648 649 650 651 652 653 
654 655 656 657 658 659 660 661 662 
663 664 665 684 685 686 687 688 689 
690 691 692 693 694 695 696 697 698 
699 700 701 720 721 722 723 724 725 
726 727 728 729 730 731 732 733 734 
735 736 737 756 757 758 759 760 761 
762 763 764 765 766 767 768 769 770 
771 772 773 792 793 794 795 796 797 
798 799 800 801 802 803 804 805 806 
807 808 809 828 829 830 831 832 833 
834 835 836 837 838 839 840 841 842 
843 844 845 864 865 866 867 868 869 
870 871 872 873 874 875 876 877 878 
879 880 881 915 916 917 918 919 920 
921 922 923 924 925 926 927 928 929 
948 949 950 951 952 953 954 955 956 
957 958 959 960 961 962 963 964 965 
984 985 986 987 988 989 990 991 992 
993 994 995 996 997 998 999 1000 1001 
1020 1021 1022 1023 1024 1025 1026 1027 1028 
1029 1030 1031 1032 1033 1034 1035 1036 1037 
1056 1057 1058 1059 1060 1061 1062 1063 1064 
1065 1066 1067 1068 1069 1070 1071 1072 1073 
1092 1093 1094 1095 1096 1097 1098 1099 1100 
1101 1102 1103 1104 1105 1106 1107 1108 1109 
1128 1129 1130 1131 1132 1133 1134 1135 1136 
1137 1138 1139 1140 1141 1142 1143 1144 1145 
1164 1165 1166 1167 1168 1169 1170 1171 1172 
1173 1174 1175 1176 1177 1178 1179 1180 1181 
1215 1216 1217 1218 1219 1220 1221 1222 1223 
1224 1225 1226 1227 1228 1229 1248 1249 1250 
1251 1252 1253 1254 1255 1256 1257 1258 1259 
1260 1261 1262 1263 1264 1265 1284 1285 1286 
1287 1288 1289 1290 1291 1292 1293 1294 1295 
1296 1297 1298 1299 1300 1301 1320 1321 1322 
1323 1324 1325 1326 1327 1328 1329 1330 1331 
1332 1333 1334 1335 1336 1337 1356 1357 1358 
1359 1360 1361 1362 1363 1364 1365 1366 1367 
1368 1369 1370 1371 1372 1373 1392 1393 1394 
1395 1396 1397 1398 1399 1400 1401 1402 1403 
1404 1405 1406 1407 1408 1409 1428 1429 1430 
1431 1432 1433 1434 1435 1436 1437 1438 1439 
1440 1441 1442 1443 1444 1445 1464 1465 1466 
1467 1468 1469 1470 1471 1472 1473 1474 1475 
1476 1477 1478 1479 1480 1481 1515 1516 1517 
1518 1519 1520 1521 1522 1523 1524 1525 1526 
1527 1528 1529 1548 1549 1550 1551 1552 1553 
1554 1555 1556 1557 1558 1559 1560 1561 1562 
1563 1564 1565 1584 1585 1586 1587 1588 1589 
1590 1591 1592 1593 1594 1595 1596 1597 1598 
1599 1600 1601 1620 1621 1622 1623 1624 1625 
1626 1627 1628 1629 1630 1631 1632 1633 1634 
1635 1636 1637 1656 1657 1658 1659 1660 1661 
1662 1663 1664 1665 1666 1667 1668 1669 1670 
1671 1672 1673 1692 1693 1694 1695 1696 1697 
1698 1699 1700 1701 1702 1703 1704 1705 1706 
1707 1708 1709 1728 1729 1730 1731 1732 1733 
1734 1735 1736 1737 1738 1739 1740 1741 1742 
1743 1744 1745 1764 1765 1766 1767 1768 1769 
1770 1771 1772 1773 1774 1775 1776 1777 1778 
1779 1780 1781 1815 1816 1817 1818 1819 1820 
1821 1822 1823 1824 1825 1826 1827 1828 1829 
1848 1849 1850 1851 1852 1853 1854 1855 1856 
1857 1858 1859 1860 1861 1862 1863 1864 1865 
1884 1885 1886 1887 1888 1889 1890 1891 1892 
1893 1894 1895 1896 1897 1898 1899 1900 1901 
1920 1921 1922 1923 1924 1925 1926 1927 1928 
1929 1930 1931 1932 1933 1934 1935 1936 1937 
1956 1957 1958 1959 1960 1961 1962 1963 1964 
1965 1966 1967 1968 1969 1970 1971 1972 1973 
1992 1993 1994 1995 1996 1997 1998 1999 2000 
2001 2002 2003 2004 2005 2006 2007 2008 2009 
2028 2029 2030 2031 2032 2033 2034 2035 2036 
2037 2038 2039 2040 2041 2042 2043 2044 2045 
2064 2065 2066 2067 2068 2069 2070 2071 2072 
2073 2074 2075 2076 2077 2078 2079 2080 2081 
2115 2116 2117 2118 2119 2120 2121 2122 2123 
2124 2125 2126 2127 2128 2129 2148 2149 2150 
2151 2152 2153 2154 2155 2156 2157 2158 2159 
2160 2161 2162 2163 2164 2165 2184 2185 2186 
2187 2188 2189 2190 2191 2192 2193 2194 2195 
2196 2197 2198 2199 2200 2201 2220 2221 2222 
2223 2224 2225 2226 2227 2228 2229 2230 2231 
2232 2233 2234 2235 2236 2237 2256 2257 2258 
2259 2260 2261 2262 2263 2264 2265 2266 2267 
2268 2269 2270 2271 2272 2273 2292 2293 2294 
2295 2296 2297 2298 2299 2300 2301 2302 2303 
2304 2305 2306 2307 2308 2309 2328 2329 2330 
2331 2332 2333 2334 2335 2336 2337 2338 2339 
2340 2341 2342 2343 2344 2345 2364 2365 2366 
2367 2368 2369 2370 2371 2372 2373 2374 2375 
2376 2377 2378 2379 2380 2381 0 1 2 
3 4 5 6 7 9 10 11 14 
15 17 18 19 20 21 22 23 24 
25 26 28 30 31 36 37 38 40 
41 42 45 46 49 50 51 54 56 
57 60 62 63 64 65 66 68 69 

POINT_DATA 1082
FIELD FieldData 1
vtkOriginalPointIds 1 1082 vtkIdType
300 373 303 0 5 8 9 10 11 
12 26 27 28 29 30 31 32 33 
34 35 36 37 50 51 52 53 54 
55 56 57 58 59 60 61 74 75 
76 77 78 79 80 81 82 83 84 
85 98 99 100 101 102 103 104 105 
106 107 108 109 122 123 124 125 126 
127 128 129 130 131 132 133 146 147 
148 149 150 151 152 153 154 155 156 
157 170 171 172 173 174 175 176 177 
25 43 24 26 206 208 209 210 220 
221 222 223 224 225 226 227 228 238 
239 240 241 242 243 244 245 246 256 
257 258 259 260 261 262 263 264 274 
275 276 277 278 279 280 281 282 292 
293 294 295 296 297 298 299 300 310 
311 312 313 314 315 316 317 318 328 
329 330 331 332 333 28 27 29 355 
357 358 359 360 370 371 372 373 374 
375 376 377 378 388 389 390 391 392 
393 394 395 396 406 407 408 409 410 
411 412 413 414 424 425 426 427 428 
429 430 431 432 442 443 444 445 446 
447 448 449 450 460 461 462 463 464 
465 466 467 468 478 479 480 481 482 
483 44 31 30 506 508 509 510 520 
521 522 523 524 525 526 527 528 538 
539 540 541 542 543 544 545 546 556 
557 558 559 560 561 562 563 564 574 
575 576 577 578 579 580 581 582 592 
593 594 595 596 597 598 599 600 610 
611 612 613 614 616 617 628 629 630 
631 632 633 33 32 39 655 657 658 
659 660 670 671 672 673 674 675 676 
677 678 688 689 690 691 692 693 694 
695 696 706 707 708 709 710 711 712 
713 714 724 725 726 727 728 729 730 
731 732 742 743 744 745 746 747 748 
749 750 760 761 762 763 764 765 767 
768 778 779 780 781 782 783 45 41 
40 806 808 809 810 820 821 822 823 
824 825 826 827 828 838 839 840 841 
842 843 844 845 846 856 857 858 859 
860 861 862 863 864 874 875 876 877 
878 879 880 881 882 892 893 894 895 
896 897 898 899 900 910 911 912 913 
914 915 916 917 918 928 929 930 931 
932 933 35 34 38 955 957 958 959 
960 970 971 972 973 974 975 976 977 
978 988 989 990 991 992 993 994 995 
996 1006 1007 1008 1009 1010 1011 1012 1013 
1014 1024 1025 1026 1027 1028 1029 1030 1031 
1032 1042 1043 1044 1045 1046 1047 1048 1049 
1050 1060 1061 1062 1063 1064 1065 1066 1067 
1068 1078 1079 1080 1081 1082 1083 46 37 
36 1105 1106 1107 1114 1115 1116 1117 1118 
1119 1126 1127 1128 1129 1130 1131 1138 1139 
1140 1141 1142 1143 1150 1151 1152 1153 1154 
1155 1162 1163 1164 1165 1166 1167 1174 1175 
1176 1177 1178 1179 1186 1187 1188 1189 42 
47 13 18 21 22 23 24 25 38 
39 40 41 42 43 44 45 46 47 
48 49 62 63 64 65 66 67 68 
69 70 71 72 73 86 87 88 89 
90 91 92 93 94 95 96 97 110 
111 112 113 114 115 116 117 118 119 
120 121 134 135 136 137 138 139 140 
141 142 143 144 145 158 159 160 161 
162 163 164 165 166 167 168 169 182 
183 184 185 186 187 188 189 2 1 
3 4 215 217 218 219 229 230 231 
232 233 234 235 236 237 247 248 249 
250 251 252 253 254 255 265 266 267 
268 269 270 271 272 273 283 284 285 
286 287 288 289 290 291 301 302 303 
304 305 306 307 308 309 319 320 321 
322 323 324 325 326 327 337 338 339 
340 341 342 5 21 6 364 366 367 
368 369 379 380 381 382 383 384 385 
386 387 397 398 399 400 401 402 403 
404 405 415 416 417 418 419 420 421 
422 423 433 434 435 436 437 438 439 
440 441 451 452 453 454 455 456 457 
458 459 469 470 471 472 473 474 475 
476 477 487 488 489 490 491 492 7 
8 9 515 517 518 519 529 530 531 
532 533 534 535 536 537 547 548 549 
550 551 552 553 554 555 565 566 567 
568 569 570 571 572 573 583 584 585 
586 587 588 589 590 591 601 602 603 
604 605 606 607 608 609 619 620 621 
622 623 624 625 626 627 637 638 639 
640 641 642 10 22 13 664 666 667 
668 669 679 680 681 682 683 684 685 
686 687 697 698 699 700 701 702 703 
704 705 715 716 717 718 719 720 721 
722 723 733 734 735 736 737 738 739 
740 741 751 752 753 754 755 756 757 
758 759 769 770 771 772 773 774 775 
776 777 787 788 789 790 791 792 14 
15 16 815 817 818 819 829 830 831 
832 833 834 835 836 837 847 848 849 
850 851 852 853 854 855 865 866 867 
868 869 870 871 872 873 883 884 885 
886 887 888 889 890 891 901 902 903 
904 905 906 907 908 909 919 920 921 
922 923 924 925 926 927 937 938 939 
940 941 942 17 23 18 964 966 967 
968 969 979 980 981 982 983 984 985 
986 987 997 998 999 1000 1001 1002 1003 
1004 1005 1015 1016 1017 1018 1019 1020 1021 
1022 1023 1033 1034 1035 1036 1037 1038 1039 
1040 1041 1051 1052 1053 1054 1055 1056 1057 
1058 1059 1069 1070 1071 1072 1073 1074 1075 
1076 1077 1087 1088 1089 1090 1091 1092 19 
20 11 1111 1112 1113 1120 1121 1122 1123 
1124 1125 1132 1133 1134 1135 1136 1137 1144 
1145 1146 1147 1148 1149 1156 1157 1158 1159 
1160 1161 1168 1169 1170 1171 1172 1173 1180 
1181 1182 1183 1184 1185 1192 1193 1194 1195 
12 0 
