# vtk DataFile Version 5.1
vtk output
ASCII
DATASET POLYDATA
POINTS 1082 float
-16.9804 -14.0755 -3.37775 -12.4641 -20.6274 1.58715 -18.0712 -14.9881 1.3515 
15.1217 12.6372 -57.3887 16.4185 15.2148 -55.6221 14.5367 16.2662 -55.8864 
17.1852 16.8699 -53.9903 18.5625 15.4846 -53.9325 15.638 17.9443 -54.1614 
14.0256 18.6353 -54.4341 17.6484 18.0669 -52.1222 19.4704 16.2343 -52.0457 
15.6016 19.4883 -52.3485 13.4686 20.4024 -52.7093 17.9936 19.1431 -49.9058 
20.2482 16.8755 -49.811 15.4609 20.9019 -50.1858 12.8216 22.0331 -50.6322 
18.2186 20.0914 -47.3559 20.8907 17.404 -47.2435 15.2169 22.176 -47.6878 
12.0889 23.5165 -48.2168 18.3215 20.9051 -44.4884 21.3931 17.8158 -44.3593 
14.8709 23.3013 -44.8699 11.2751 24.8424 -45.4781 18.3019 21.579 -41.3237 
21.7526 18.1085 -41.1787 14.4256 24.271 -41.7523 10.386 26.0022 -42.4355 
18.1601 22.1088 -37.883 21.9668 18.2803 -37.723 13.8839 25.0785 -38.3559 
9.42756 26.9883 -39.1095 17.8965 22.4903 -34.1882 22.0336 18.3294 -34.0143 
13.2491 25.7178 -34.702 8.40586 27.7933 -35.5212 17.5133 22.7216 -30.2649 
21.9532 18.256 -30.0783 12.5256 26.1852 -30.8164 7.32799 28.4127 -31.6955 
17.0131 22.801 -26.1394 21.7262 18.0607 -25.9413 11.7186 26.4778 -26.7248 
6.20115 28.8424 -27.658 16.3988 22.7275 -21.8388 21.3535 17.7444 -21.6305 
10.833 26.5928 -22.4542 5.03276 29.0786 -23.4352 15.6749 22.5022 -17.392 
20.838 17.3094 -17.1751 9.87493 26.53 -18.0334 3.83071 29.1203 -19.0556 
14.8464 22.1265 -12.8293 20.1834 16.7588 -12.605 8.85094 26.2901 -13.4922 
2.6031 28.9677 -14.5489 13.9182 21.6025 -8.18042 19.3934 16.0958 -7.95029 
7.76754 25.8739 -8.8605 1.35802 28.6208 -9.94451 12.8971 20.9341 -3.47683 
18.4739 15.3252 -3.24246 6.63238 25.2847 -4.16955 0.103857 28.0826 -5.27368 
11.7897 20.1259 1.24993 17.4309 14.4523 1.48701 5.45275 24.5267 0.549224 
-1.151 27.3568 -0.56763 10.6034 19.1827 5.96832 16.271 13.4825 6.20651 
4.23668 23.6042 5.26434 -2.39813 26.4476 4.14222 9.3462 18.1113 10.6468 
15.0024 12.4225 10.8845 2.99225 22.5239 9.94427 -3.62923 25.3615 8.82438 
8.02652 16.9189 15.2542 13.6336 11.2796 15.4898 1.72779 21.2931 14.5577 
-4.83609 24.1061 13.4476 6.65305 15.6131 19.7593 12.1734 10.0611 19.9913 
0.451801 19.9196 19.0736 -6.01053 22.6891 17.9806 5.23508 14.2029 24.1324 
10.6318 8.77532 24.3592 -0.827235 18.4131 23.462 -7.14481 21.1204 22.3936 
3.78221 12.6979 28.3441 9.01919 7.4309 28.5642 -2.10072 16.7834 27.6936 
-8.23132 19.4106 26.6568 12.7581 16.2947 -56.3488 12.458 18.8825 -54.7927 
11.0392 18.6831 -55.2105 9.86535 18.0505 -55.6591 11.3948 20.7294 -53.1837 
9.51795 20.4655 -53.7364 7.96502 19.6287 -54.3298 10.2555 22.4377 -51.2192 
7.93305 22.1112 -51.9031 6.01144 21.0758 -52.6374 9.04762 23.9961 -48.9126 
6.29518 23.6091 -49.723 4.01768 22.382 -50.5934 7.7791 25.3936 -46.2779 
4.61496 24.9489 -47.2095 1.99698 23.5382 -48.21 6.45855 26.6215 -43.334 
2.90404 26.1218 -44.3807 -0.0370087 24.537 -45.5046 5.09492 27.6715 -40.1007 
1.17371 27.1202 -41.2553 -2.07081 25.372 -42.4952 3.69705 28.5359 -36.5984 
-0.56457 27.9368 -37.8532 -4.09068 26.0367 -39.2008 2.27462 29.2095 -32.8515 
-2.29907 28.5667 -34.1982 -6.08319 26.5275 -35.6444 0.836796 29.6882 -28.8852 
-4.01817 29.0057 -30.3148 -8.03513 26.8411 -31.8499 -0.606493 29.9677 -24.7253 
-5.71024 29.2502 -26.2281 -9.93318 26.9748 -27.8419 -2.04578 30.047 -20.4 
-7.36432 29.2994 -21.966 -11.7648 26.9281 -23.6477 -3.47136 29.9255 -15.9385 
-8.96909 29.1527 -17.5574 -13.5179 26.7015 -19.2957 -4.87363 29.6034 -11.3702 
-10.5137 28.8105 -13.0309 -15.1803 26.296 -14.8142 -6.24349 29.0834 -6.7258 
-11.9882 28.2759 -8.4173 -16.7413 25.7146 -10.2337 -7.57148 28.3691 -2.03648 
-13.3824 27.5523 -3.74751 -18.1904 24.9615 -5.58488 -8.84882 27.4647 2.66647 
-14.687 26.644 0.94741 -19.5175 24.041 -0.898595 -10.067 26.3767 7.35162 
-15.8935 25.5577 5.636 -20.7142 22.9599 3.7937 -11.2178 25.1124 11.9876 
-16.9937 24.3006 10.2869 -21.7726 21.7254 8.46062 -12.2935 23.6798 16.5432 
-17.98 22.8805 14.8689 -22.685 20.3452 13.0709 -13.2871 22.089 20.9884 
-18.8462 21.3075 19.3515 -23.4458 18.8291 17.5938 -14.1918 20.3506 25.2932 
-19.5864 19.5923 23.7047 -24.0499 17.1871 21.999 11.5589 15.3011 -56.8836 
11.2569 13.5489 -57.349 9.02574 17.0149 -56.1084 8.56649 15.6584 -56.5281 
8.51873 14.0728 -56.8898 6.85429 18.2587 -54.9242 6.24676 16.4641 -55.4794 
6.18356 14.3666 -55.958 4.63705 19.3804 -53.3729 3.8853 17.1599 -54.0599 
3.80705 14.5645 -54.6521 2.38885 20.3727 -51.465 1.49783 17.741 -52.2793 
1.40517 14.6649 -52.9811 0.124498 21.2285 -49.212 -0.899637 18.2031 -50.148 
-1.00624 14.6671 -50.9548 -2.14055 21.9423 -46.6302 -3.29115 18.5437 -47.6818 
-3.41086 14.5713 -48.5881 -4.3913 22.5095 -43.737 -5.66064 18.7604 -44.897 
-5.79271 14.3781 -45.8968 -6.61268 22.9259 -40.5503 -7.99218 18.8512 -41.8111 
-8.13565 14.0885 -42.8976 -8.78989 23.189 -37.0927 -10.2702 18.816 -38.4457 
-10.4242 13.7048 -39.6118 -10.9083 23.2972 -33.3873 -12.4798 18.6553 -34.8236 
-12.6433 13.2295 -36.0614 -12.9535 23.2491 -29.4581 -14.6056 18.3693 -30.968 
-14.7775 12.6655 -32.2693 -14.9123 23.0458 -25.3319 -16.6338 17.9606 -26.9053 
-16.813 12.0168 -28.2614 -16.7714 22.6884 -21.0367 -18.5509 17.4319 -22.6631 
-18.7361 11.288 -24.0648 -18.518 22.1789 -16.6003 -20.3436 16.7863 -18.2688 
-20.5336 10.4833 -19.7068 -20.1409 21.5213 -12.0529 -22.0004 16.0287 -13.7524 
-22.1939 9.60866 -15.217 -21.6292 20.7198 -7.42505 -23.5102 15.1638 -9.14411 
-23.7059 8.66981 -10.6257 -22.9726 19.7794 -2.74741 -24.8624 14.1973 -4.47454 
-25.059 7.67282 -5.96307 -24.1624 18.7068 1.9486 -26.0484 13.136 0.224933 
-26.2445 6.62453 -1.26059 -25.1907 17.5092 6.63156 -27.0602 11.9868 4.92289 
-27.2548 5.53201 3.45027 -26.0502 16.1943 11.2701 -27.8908 10.7573 9.58787 
-28.0823 4.40239 8.13804 -26.7356 14.7711 15.8333 -28.535 9.45595 14.1888 
-28.7222 3.24335 12.7714 -27.2423 13.2493 20.2907 -28.9885 8.09138 18.6948 
-29.1701 2.06264 17.3194 11.9416 11.5056 -57.6186 8.89893 12.361 -57.1666 
9.66824 10.642 -57.3424 10.7746 9.03226 -57.4054 6.68654 12.1021 -56.3241 
7.70425 9.82807 -56.5567 9.1678 7.69853 -56.64 4.42947 11.7623 -55.1051 
5.68879 8.94843 -55.3929 7.49976 6.31334 -55.496 2.14278 11.3439 -53.518 
3.63533 8.00904 -53.8591 5.7816 4.88596 -53.9812 -0.158253 10.8495 -51.572 
1.55739 7.01586 -51.9641 4.02467 3.42582 -52.1045 -2.45827 10.2825 -49.2815 
-0.530846 5.97587 -49.7219 2.24089 1.94283 -49.8797 -4.74184 9.64692 -46.6617 
-2.61553 4.89597 -47.1476 0.442101 0.446812 -47.3217 -6.99361 8.94655 -43.729 
-4.68275 3.78318 -44.2571 -1.35962 -1.05217 -44.4462 -9.19859 8.18652 -40.504 
-6.71869 2.64511 -41.0708 -3.15224 -2.5441 -41.2737 -11.3422 7.37163 -37.0085 
-8.70968 1.4894 -37.6101 -4.92386 -4.01909 -37.8256 -13.4097 6.50744 -33.2649 
-10.6422 0.323765 -33.8973 -6.66245 -5.46711 -34.1239 -15.3876 5.59974 -29.2989 
-12.5038 -0.844149 -29.9579 -8.3565 -6.8786 -30.194 -17.2628 4.65466 -25.1372 
-14.2817 -2.00635 -25.8185 -9.99471 -8.2441 -26.0625 -19.0221 3.67839 -20.807 
-15.9638 -3.15508 -21.5059 -11.5659 -9.55435 -21.7562 -20.6543 2.67736 -16.3377 
-17.5394 -4.28281 -17.0496 -13.0598 -10.8008 -17.3045 -22.1486 1.65864 -11.7592 
-18.9977 -5.38187 -12.4793 -14.4665 -11.975 -12.7372 -23.4944 0.628686 -7.10194 
-20.3287 -6.44485 -7.82541 -15.7762 -13.0689 -8.08448 -24.6832 -0.405434 -2.3972 
-21.5238 -7.46479 -3.11921 -25.7069 -1.43682 2.32357 -22.5751 -8.4348 1.60781 
-26.5584 -2.45863 7.02877 -23.475 -9.34831 6.32409 -19.0409 -15.8002 6.07175 
-27.2325 -3.46396 11.687 -24.2181 -10.1993 10.9981 -19.8833 -16.5068 10.7514 
-27.7245 -4.44616 16.2671 -24.7993 -10.9822 15.5986 -20.5928 -17.103 15.3592 
13.4208 9.72182 -57.6216 15.3025 8.67035 -57.3573 12.1519 7.64703 -57.3475 
13.6991 6.57255 -57.1764 15.3114 5.88158 -56.9037 10.9898 5.86601 -56.5634 
13.0366 4.4446 -56.3371 15.1696 3.5305 -55.9763 9.75437 4.04581 -55.4012 
12.2871 2.28695 -55.1212 14.9264 1.15581 -54.6748 8.45375 2.19858 -53.8689 
11.4554 0.113989 -53.537 14.5834 -1.22653 -53.008 7.09633 0.336521 -51.9754 
10.5469 -2.0597 -51.5939 14.1427 -3.60076 -50.9857 5.6916 -1.52769 -49.7346 
9.5679 -4.21967 -49.306 13.6075 -5.95086 -48.6228 4.24885 -3.38169 -47.1617 
8.52505 -6.35143 -46.6888 12.9814 -8.26122 -45.9352 2.77754 -5.21308 -44.2723 
7.42495 -8.44059 -43.7584 12.2681 -10.5161 -42.9393 1.28767 -7.00964 -41.0871 
6.27538 -10.4733 -40.5356 11.473 -12.7008 -39.6566 -0.210762 -8.75932 -37.6275 
5.08369 -12.4361 -37.0421 10.6012 -14.8007 -36.1089 -1.70771 -10.4502 -33.9156 
3.85806 -14.3155 -33.3002 9.65829 -16.8013 -32.3192 -3.19339 -12.0714 -29.977 
2.6066 -16.0993 -29.3356 8.65082 -18.6896 -28.3134 -4.65764 -13.6119 -25.8382 
1.33777 -17.7755 -25.1753 7.58561 -20.4531 -24.1186 -6.09064 -15.061 -21.5261 
0.0599939 -19.3325 -20.846 6.46951 -22.0793 -19.762 -7.48304 -16.4096 -17.0701 
-1.21835 -20.7602 -16.3774 5.31017 -23.5581 -15.2732 -8.82537 -17.6486 -12.5001 
-2.48838 -22.0493 -11.7994 4.11537 -24.8795 -10.6825 -10.1085 -18.7692 -7.84629 
-3.74184 -23.1906 -7.14231 2.89297 -26.034 -6.02019 -11.3242 -19.7644 -3.14006 
-4.97025 -24.1769 -2.43748 1.65123 -27.0145 -1.31759 -6.16541 -25.0016 2.28364 
0.39847 -27.8146 3.39376 -13.5206 -21.3523 6.30375 -7.3193 -25.6587 6.98946 
-0.856975 -28.4282 8.08241 -14.4866 -21.9344 10.9782 -8.42426 -26.1445 11.6486 
-2.10669 -28.8519 12.717 -15.3558 -22.37 15.5793 -9.47291 -26.4554 16.2298 
-3.34231 -29.0827 17.2666 17.0811 8.64191 -56.8949 16.879 5.63438 -56.5451 
18.2978 5.83382 -56.1273 19.4717 6.46637 -55.6787 17.2434 3.2035 -55.5019 
19.1203 3.46733 -54.9492 20.6732 4.30414 -54.3558 17.4925 0.751221 -54.0878 
19.8149 1.07768 -53.4039 21.7365 2.11313 -52.6696 17.6247 -1.70612 -52.3122 
20.3771 -1.31913 -51.5018 22.6546 -0.0920232 -50.6314 17.6387 -4.15197 -50.1859 
20.8028 -3.70726 -49.2543 23.4208 -2.29656 -48.2538 17.5349 -6.57015 -47.7243 
21.0895 -6.07046 -46.6777 24.0305 -4.48568 -45.5538 17.314 -8.9444 -44.944 
21.2352 -8.39311 -43.7893 24.4797 -6.64492 -42.5495 16.977 -11.2587 -41.8621 
21.2386 -10.6596 -40.6072 24.7647 -8.75952 -39.2597 16.5263 -13.4976 -38.5005 
[...]
CELL_DATA 2304
FIELD FieldData 1
vtkOriginalCellIds 1 2304 vtkIdType
681 0 1 2 3 4 5 6 7 
8 9 10 11 12 13 14 30 31 
32 33 34 35 36 37 38 39 40 
41 42 43 44 45 46 47 66 67 
68 69 70 71 72 73 74 75 76 
77 78 79 80 81 82 83 102 103 
104 105 106 107 108 109 110 111 112 
113 114 115 116 117 118 119 138 139 
140 141 142 143 144 145 146 147 148 
149 150 151 152 153 154 155 174 175 
176 177 178 179 180 181 182 183 184 
185 186 187 188 189 190 191 210 211 
212 213 214 215 216 217 218 219 220 
221 222 223 224 225 226 227 246 247 
248 249 250 251 252 253 254 255 256 
257 258 259 260 261 262 263 300 301 
302 303 304 305 306 307 308 309 310 
311 312 313 314 330 331 332 333 334 
335 336 337 338 339 340 341 342 343 
344 345 346 347 366 367 368 369 370 
371 372 373 374 375 376 377 378 379 
380 381 382 383 402 403 404 405 406 
407 408 409 410 411 412 413 414 415 
416 417 418 419 438 439 440 441 442 
443 444 445 446 447 448 449 450 451 
452 453 454 455 474 475 476 477 478 
479 480 481 482 483 484 485 486 487 
488 489 490 491 510 511 512 513 514 
515 516 517 518 519 520 521 522 523 
524 525 526 527 546 547 548 549 550 
551 552 553 554 555 556 557 558 559 
560 561 562 563 600 601 602 603 604 
605 606 607 608 609 610 611 612 613 
614 630 631 632 633 634 635 636 637 
638 639 640 641 642 643 644 645 646 
647 666 667 668 669 670 671 672 673 
674 675 676 677 678 679 680 681 682 
683 702 703 704 705 706 707 708 709 
710 711 712 713 714 715 716 717 718 
719 738 739 740 741 742 743 744 745 
746 747 748 749 750 751 752 753 754 
755 774 775 776 777 778 779 780 781 
782 783 784 785 786 787 788 789 790 
791 810 811 812 813 814 815 816 817 
818 819 820 821 822 823 824 825 826 
827 846 847 848 849 850 851 852 853 
854 855 856 857 858 859 860 861 862 
863 900 901 902 903 904 905 906 907 
908 909 910 911 912 913 914 930 931 
932 933 934 935 936 937 938 939 940 
941 942 943 944 945 946 947 966 967 
968 969 970 971 972 973 974 975 976 
977 978 979 980 981 982 983 1002 1003 
1004 1005 1006 1007 1008 1009 1010 1011 1012 
1013 1014 1015 1016 1017 1018 1019 1038 1039 
1040 1041 1042 1043 1044 1045 1046 1047 1048 
1049 1050 1051 1052 1053 1054 1055 1074 1075 
1076 1077 1078 1079 1080 1081 1082 1083 1084 
1085 1086 1087 1088 1089 1090 1091 1110 1111 
1112 1113 1114 1115 1116 1117 1118 1119 1120 
1121 1122 1123 1124 1125 1126 1127 1146 1147 
1148 1149 1150 1151 1152 1153 1154 1155 1156 
1157 1158 1159 1160 1161 1162 1163 1200 1201 
1202 1203 1204 1205 1206 1207 1208 1209 1210 
1211 1212 1213 1214 1230 1231 1232 1233 1234 
1235 1236 1237 1238 1239 1240 1241 1242 1243 
1244 1245 1246 1247 1266 1267 1268 1269 1270 
1271 1272 1273 1274 1275 1276 1277 1278 1279 
1280 1281 1282 1283 1302 1303 1304 1305 1306 
1307 1308 1309 1310 1311 1312 1313 1314 1315 
1316 1317 1318 1319 1338 1339 1340 1341 1342 
1343 1344 1345 1346 1347 1348 1349 1350 1351 
1352 1353 1354 1355 1374 1375 1376 1377 1378 
1379 1380 1381 1382 1383 1384 1385 1386 1387 
1388 1389 1390 1391 1410 1411 1412 1413 1414 
1415 1416 1417 1418 1419 1420 1421 1423 1424 
1425 1426 1427 1446 1447 1448 1449 1450 1451 
1452 1453 1454 1455 1456 1457 1458 1459 1460 
1461 1462 1463 1500 1501 1502 1503 1504 1505 
1506 1507 1508 1509 1510 1511 1512 1513 1514 
1530 1531 1532 1533 1534 1535 1536 1537 1538 
1539 1540 1541 1542 1543 1544 1545 1546 1547 
1566 1567 1568 1569 1570 1571 1572 1573 1574 
1575 1576 1577 1578 1579 1580 1581 1582 1583 
1602 1603 1604 1605 1606 1607 1608 1609 1610 
1611 1612 1613 1614 1615 1616 1617 1618 1619 
1638 1639 1640 1641 1642 1643 1644 1645 1646 
1647 1648 1649 1650 1651 1652 1653 1654 1655 
1674 1675 1676 1677 1678 1679 1680 1681 1682 
1683 1684 1685 1686 1687 1688 1689 1690 1691 
1710 1711 1712 1713 1714 1715 1716 1717 1718 
1719 1720 1721 1722 1723 1724 1725 1726 1727 
1746 1747 1748 1749 1750 1751 1752 1753 1754 
1755 1756 1757 1758 1759 1760 1761 1762 1763 
1800 1801 1802 1803 1804 1805 1806 1807 1808 
1809 1810 1811 1812 1813 1814 1830 1831 1832 
1833 1834 1835 1836 1837 1838 1839 1840 1841 
1842 1843 1844 1845 1846 1847 1866 1867 1868 
1869 1870 1871 1872 1873 1874 1875 1876 1877 
1878 1879 1880 1881 1882 1883 1902 1903 1904 
1905 1906 1907 1908 1909 1910 1911 1912 1913 
1914 1915 1916 1917 1918 1919 1938 1939 1940 
1941 1942 1943 1944 1945 1946 1947 1948 1949 
1950 1951 1952 1953 1954 1955 1974 1975 1976 
1977 1978 1979 1980 1981 1982 1983 1984 1985 
1986 1987 1988 1989 1990 1991 2010 2011 2012 
2013 2014 2015 2016 2017 2018 2019 2020 2021 
2022 2023 2024 2025 2026 2027 2046 2047 2048 
2049 2050 2051 2052 2053 2054 2055 2056 2057 
2058 2059 2060 2061 2062 2063 2100 2101 2102 
2103 2104 2105 2106 2107 2108 2109 2110 2111 
2112 2113 2114 2130 2131 2132 2133 2134 2135 
2136 2137 2138 2139 2140 2141 2142 2143 2144 
2145 2146 2147 2166 2167 2168 2169 2170 2171 
2172 2173 2174 2175 2176 2177 2178 2179 2180 
2181 2182 2183 2202 2203 2204 2205 2206 2207 
2208 2209 2210 2211 2212 2213 2214 2215 2216 
2217 2218 2219 2238 2239 2240 2241 2242 2243 
2244 2245 2246 2247 2248 2249 2250 2251 2252 
2253 2254 2255 2274 2275 2276 2277 2278 2279 
2280 2281 2282 2283 2284 2285 2286 2287 2288 
2289 2290 2291 2310 2311 2312 2313 2314 2315 
2316 2317 2318 2319 2320 2321 2322 2323 2324 
2325 2326 2327 2346 2347 2348 2349 2350 2351 
2352 2353 2354 2355 2356 2357 2358 2359 2360 
2361 2362 2363 15 16 17 18 19 20 
21 22 23 24 25 26 27 28 29 
48 49 50 51 52 53 54 55 56 
57 58 59 60 61 62 63 64 65 
84 85 86 87 88 89 90 91 92 
93 94 95 96 97 98 99 100 101 
120 121 122 123 124 125 126 127 128 
129 130 131 132 133 134 135 136 137 
156 157 158 159 160 161 162 163 164 
165 166 167 168 169 170 171 172 173 
192 193 194 195 196 197 198 199 200 
201 202 203 204 205 206 207 208 209 
228 229 230 231 232 233 234 235 236 
237 238 239 240 241 242 243 244 245 
264 265 266 267 268 269 270 271 272 
273 274 275 276 277 278 279 280 281 
315 316 317 318 319 320 321 322 323 
324 325 326 327 328 329 348 349 350 
351 352 353 354 355 356 357 358 359 
360 361 362 363 364 365 384 385 386 
387 388 389 390 391 392 393 394 395 
396 397 398 399 400 401 420 421 422 
423 424 425 426 427 428 429 430 431 
432 433 434 435 436 437 456 457 458 
459 460 461 462 463 464 465 466 467 
468 469 470 471 472 473 492 493 494 
495 496 497 498 499 500 501 502 503 
504 505 506 507 508 509 528 529 530 
531 532 533 534 535 536 537 538 539 
540 541 542 543 544 545 564 565 566 
567 568 569 570 571 572 573 574 575 
576 577 578 579 580 581 615 616 617 
618 619 620 621 622 623 624 625 626 
627 628 629 648 649 650 651 652 653 
654 655 656 657 658 659 660 661 662 
663 664 665 684 685 686 687 688 689 
690 691 692 693 694 695 696 697 698 
699 700 701 720 721 722 723 724 725 
726 727 728 729 730 731 732 733 734 
735 736 737 756 757 758 759 760 761 
762 763 764 765 766 767 768 769 770 
771 772 773 792 793 794 795 796 797 
798 799 800 801 802 803 804 805 806 
807 808 809 828 829 830 831 832 833 
834 835 836 837 838 839 840 841 842 
843 844 845 864 865 866 867 868 869 
870 871 872 873 874 875 876 877 878 
879 880 881 915 916 917 918 919 920 
921 922 923 924 925 926 927 928 929 
948 949 950 951 952 953 954 955 956 
957 958 959 960 961 962 963 964 965 
984 985 986 987 988 989 990 991 992 
993 994 995 996 997 998 999 1000 1001 
1020 1021 1022 1023 1024 1025 1026 1027 1028 
1029 1030 1031 1032 1033 1034 1035 1036 1037 
1056 1057 1058 1059 1060 1061 1062 1063 1064 
1065 1066 1067 1068 1069 1070 1071 1072 1073 
1092 1093 1094 1095 1096 1097 1098 1099 1100 
1101 1102 1103 1104 1105 1106 1107 1108 1109 
1128 1129 1130 1131 1132 1133 1134 1135 1136 
1137 1138 1139 1140 1141 1142 1143 1144 1145 
1164 1165 1166 1167 1168 1169 1170 1171 1172 
1173 1174 1175 1176 1177 1178 1179 1180 1181 
1215 1216 1217 1218 1219 1220 1221 1222 1223 
1224 1225 1226 1227 1228 1229 1248 1249 1250 
1251 1252 1253 1254 1255 1256 1257 1258 1259 
1260 1261 1262 1263 1264 1265 1284 1285 1286 
1287 1288 1289 1290 1291 1292 1293 1294 1295 
1296 1297 1298 1299 1300 1301 1320 1321 1322 
1323 1324 1325 1326 1327 1328 1329 1330 1331 
1332 1333 1334 1335 1336 1337 1356 1357 1358 
1359 1360 1361 1362 1363 1364 1365 1366 1367 
1368 1369 1370 1371 1372 1373 1392 1393 1394 
1395 1396 1397 1398 1399 1400 1401 1402 1403 
1404 1405 1406 1407 1408 1409 1428 1429 1430 
1431 1432 1433 1434 1435 1436 1437 1438 1439 
1440 1441 1442 1443 1444 1445 1464 1465 1466 
1467 1468 1469 1470 1471 1472 1473 1474 1475 
1476 1477 1478 1479 1480 1481 1515 1516 1517 
1518 1519 1520 1521 1522 1523 1524 1525 1526 
1527 1528 1529 1548 1549 1550 1551 1552 1553 
1554 1555 1556 1557 1558 1559 1560 1561 1562 
1563 1564 1565 1584 1585 1586 1587 1588 1589 
1590 1591 1592 1593 1594 1595 1596 1597 1598 
1599 1600 1601 1620 1621 1622 1623 1624 1625 
1626 1627 1628 1629 1630 1631 1632 1633 1634 
1635 1636 1637 1656 1657 1658 1659 1660 1661 
1662 1663 1664 1665 1666 1667 1668 1669 1670 
1671 1672 1673 1692 1693 1694 1695 1696 1697 
1698 1699 1700 1701 1702 1703 1704 1705 1706 
1707 1708 1709 1728 1729 1730 1731 1732 1733 
1734 1735 1736 1737 1738 1739 1740 1741 1742 
1743 1744 1745 1764 1765 1766 1767 1768 1769 
1770 1771 1772 1773 1774 1775 1776 1777 1778 
1779 1780 1781 1815 1816 1817 1818 1819 1820 
1821 1822 1823 1824 1825 1826 1827 1828 1829 
1848 1849 1850 1851 1852 1853 1854 1855 1856 
1857 1858 1859 1860 1861 1862 1863 1864 1865 
1884 1885 1886 1887 1888 1889 1890 1891 1892 
1893 1894 1895 1896 1897 1898 1899 1900 1901 
1920 1921 1922 1923 1924 1925 1926 1927 1928 
1929 1930 1931 1932 1933 1934 1935 1936 1937 
1956 1957 1958 1959 1960 1961 1962 1963 1964 
1965 1966 1967 1968 1969 1970 1971 1972 1973 
1992 1993 1994 1995 1996 1997 1998 1999 2000 
2001 2002 2003 2004 2005 2006 2007 2008 2009 
2028 2029 2030 2031 2032 2033 2034 2035 2036 
2037 2038 2039 2040 2041 2042 2043 2044 2045 
2064 2065 2066 2067 2068 2069 2070 2071 2072 
2073 2074 2075 2076 2077 2078 2079 2080 2081 
2115 2116 2117 2118 2119 2120 2121 2122 2123 
2124 2125 2126 2127 2128 2129 2148 2149 2150 
2151 2152 2153 2154 2155 2156 2157 2158 2159 
2160 2161 2162 2163 2164 2165 2184 2185 2186 
2187 2188 2189 2190 2191 2192 2193 2194 2195 
2196 2197 2198 2199 2200 2201 2220 2221 2222 
2223 2224 2225 2226 2227 2228 2229 2230 2231 
2232 2233 2234 2235 2236 2237 2256 2257 2258 
2259 2260 2261 2262 2263 2264 2265 2266 2267 
2268 2269 2270 2271 2272 2273 2292 2293 2294 
2295 2296 2297 2298 2299 2300 2301 2302 2303 
2304 2305 2306 2307 2308 2309 2328 2329 2330 
2331 2332 2333 2334 2335 2336 2337 2338 2339 
2340 2341 2342 2343 2344 2345 2364 2365 2366 
2367 2368 2369 2370 2371 2372 2373 2374 2375 
2376 2377 2378 2379 2380 2381 0 1 2 
3 4 5 6 7 9 10 11 14 
15 17 18 19 20 21 22 23 24 
25 26 28 30 31 36 37 38 40 
41 42 45 46 49 50 51 54 56 
57 60 62 63 64 65 66 68 69 

POINT_DATA 1082
FIELD FieldData 1
vtkOriginalPointIds 1 1082 vtkIdType
300 373 303 0 5 8 9 10 11 
12 26 27 28 29 30 31 32 33 
34 35 36 37 50 51 52 53 54 
55 56 57 58 59 60 61 74 75 
76 77 78 79 80 81 82 83 84 
85 98 99 100 101 102 103 104 105 
106 107 108 109 122 123 124 125 126 
127 128 129 130 131 132 133 146 147 
148 149 150 151 152 153 154 155 156 
157 170 171 172 173 174 175 176 177 
25 43 24 26 206 208 209 210 220 
221 222 223 224 225 226 227 228 238 
239 240 241 242 243 244 245 246 256 
257 258 259 260 261 262 263 264 274 
275 276 277 278 279 280 281 282 292 
293 294 295 296 297 298 299 300 310 
311 312 313 314 315 316 317 318 328 
329 330 331 332 333 28 27 29 355 
357 358 359 360 370 371 372 373 374 
375 376 377 378 388 389 390 391 392 
393 394 395 396 406 407 408 409 410 
411 412 413 414 424 425 426 427 428 
429 430 431 432 442 443 444 445 446 
447 448 449 450 460 461 462 463 464 
465 466 467 468 478 479 480 481 482 
483 44 31 30 506 508 509 510 520 
521 522 523 524 525 526 527 528 538 
539 540 541 542 543 544 545 546 556 
557 558 559 560 561 562 563 564 574 
575 576 577 578 579 580 581 582 592 
593 594 595 596 597 598 599 600 610 
611 612 613 614 616 617 628 629 630 
631 632 633 33 32 39 655 657 658 
659 660 670 671 672 673 674 675 676 
677 678 688 689 690 691 692 693 694 
695 696 706 707 708 709 710 711 712 
713 714 724 725 726 727 728 729 730 
731 732 742 743 744 745 746 747 748 
749 750 760 761 762 763 764 765 767 
768 778 779 780 781 782 783 45 41 
40 806 808 809 810 820 821 822 823 
824 825 826 827 828 838 839 840 841 
842 843 844 845 846 856 857 858 859 
860 861 862 863 864 874 875 876 877 
878 879 880 881 882 892 893 894 895 
896 897 898 899 900 910 911 912 913 
914 915 916 917 918 928 929 930 931 
932 933 35 34 38 955 957 958 959 
960 970 971 972 973 974 975 976 977 
978 988 989 990 991 992 993 994 995 
996 1006 1007 1008 1009 1010 1011 1012 1013 
1014 1024 1025 1026 1027 1028 1029 1030 1031 
1032 1042 1043 1044 1045 1046 1047 1048 1049 
1050 1060 1061 1062 1063 1064 1065 1066 1067 
1068 1078 1079 1080 1081 1082 1083 46 37 
36 1105 1106 1107 1114 1115 1116 1117 1118 
1119 1126 1127 1128 1129 1130 1131 1138 1139 
1140 1141 1142 1143 1150 1151 1152 1153 1154 
1155 1162 1163 1164 1165 1166 1167 1174 1175 
1176 1177 1178 1179 1186 1187 1188 1189 42 
47 13 18 21 22 23 24 25 38 
39 40 41 42 43 44 45 46 47 
48 49 62 63 64 65 66 67 68 
69 70 71 72 73 86 87 88 89 
90 91 92 93 94 95 96 97 110 
111 112 113 114 115 116 117 118 119 
120 121 134 135 136 137 138 139 140 
141 142 143 144 145 158 159 160 161 
162 163 164 165 166 167 168 169 182 
183 184 185 186 187 188 189 2 1 
3 4 215 217 218 219 229 230 231 
232 233 234 235 236 237 247 248 249 
250 251 252 253 254 255 265 266 267 
268 269 270 271 272 273 283 284 285 
286 287 288 289 290 291 301 302 303 
304 305 306 307 308 309 319 320 321 
322 323 324 325 326 327 337 338 339 
340 341 342 5 21 6 364 366 367 
368 369 379 380 381 382 383 384 385 
386 387 397 398 399 400 401 402 403 
404 405 415 416 417 418 419 420 421 
422 423 433 434 435 436 437 438 439 
440 441 451 452 453 454 455 456 457 
458 459 469 470 471 472 473 474 475 
476 477 487 488 489 490 491 492 7 
8 9 515 517 518 519 529 530 531 
532 533 534 535 536 537 547 548 549 
550 551 552 553 554 555 565 566 567 
568 569 570 571 572 573 583 584 585 
586 587 588 589 590 591 601 602 603 
604 605 606 607 608 609 619 620 621 
622 623 624 625 626 627 637 638 639 
640 641 642 10 22 13 664 666 667 
668 669 679 680 681 682 683 684 685 
686 687 697 698 699 700 701 702 703 
704 705 715 716 717 718 719 720 721 
722 723 733 734 735 736 737 738 739 
740 741 751 752 753 754 755 756 757 
758 759 769 770 771 772 773 774 775 
776 777 787 788 789 790 791 792 14 
15 16 815 817 818 819 829 830 831 
832 833 834 835 836 837 847 848 849 
850 851 852 853 854 855 865 866 867 
868 869 870 871 872 873 883 884 885 
886 887 888 889 890 891 901 902 903 
904 905 906 907 908 909 919 920 921 
922 923 924 925 926 927 937 938 939 
940 941 942 17 23 18 964 966 967 
968 969 979 980 981 982 983 984 985 
986 987 997 998 999 1000 1001 1002 1003 
1004 1005 1015 1016 1017 1018 1019 1020 1021 
1022 1023 1033 1034 1035 1036 1037 1038 1039 
1040 1041 1051 1052 1053 1054 1055 1056 1057 
1058 1059 1069 1070 1071 1072 1073 1074 1075 
1076 1077 1087 1088 1089 1090 1091 1092 19 
20 11 1111 1112 1113 1120 1121 1122 1123 
1124 1125 1132 1133 1134 1135 1136 1137 1144 
1145 1146 1147 1148 1149 1156 1157 1158 1159 
1160 1161 1168 1169 1170 1171 1172 1173 1180 
1181 1182 1183 1184 1185 1192 1193 1194 1195 
12 0 
