# vtk DataFile Version 5.1
vtk output
ASCII
DATASET POLYDATA
POINTS 1082 float
-27.5323 9.59204 7.89692 -29.0051 0.329016 11.1946 -26.8569 8.79973 12.3224 
-5.32491 8.65675 -54.876 -0.89607 8.30712 -54.6025 -1.15029 10.7485 -54.1927 
2.15137 8.0045 -54.0034 1.6237 5.92376 -54.2805 2.18577 10.112 -53.6743 
1.72453 12.1036 -53.3154 4.63694 7.67762 -52.9846 3.93887 4.92503 -53.3511 
4.68243 10.4656 -52.5492 4.07227 13.1003 -52.0744 7.0915 7.29943 -51.6117 
6.22774 3.89338 -52.0652 7.14778 10.7493 -51.073 6.39283 14.0095 -50.4854 
9.49863 6.8725 -49.894 8.47502 2.8357 -50.4315 9.56543 10.9612 -49.2555 
8.67058 14.825 -48.5591 11.8423 6.39941 -47.8417 10.6655 1.75901 -48.4595 
11.9189 11.0995 -47.1077 10.8903 15.5412 -46.3072 14.1066 5.88362 -45.4697 
12.7846 0.670595 -46.1638 14.1928 11.1637 -44.6452 13.0372 16.1535 -43.7459 
16.2767 5.32853 -42.7941 14.8184 -0.422331 -43.5598 16.3718 11.1534 -41.8844 
15.0971 16.6579 -40.8924 18.3377 4.73766 -39.8313 16.7527 -1.5124 -40.6635 
18.4411 11.0681 -38.8427 17.0556 17.0505 -37.7645 20.2762 4.11515 -36.6025 
18.5751 -2.59235 -37.4955 20.387 10.909 -35.5415 18.9001 17.3292 -34.3844 
22.0792 3.46515 -33.129 20.2735 -3.65502 -34.077 22.1969 10.6769 -32.0028 
20.6186 17.4923 -30.7745 23.7341 2.79197 -29.4336 21.8359 -4.69318 -30.4302 
23.8578 10.3734 -28.2496 22.1987 17.538 -26.9584 25.2305 2.10005 -25.5413 
23.2524 -5.69996 -26.5798 25.3594 10.0004 -24.3075 23.6304 17.4664 -22.962 
26.5582 1.39414 -21.4785 24.5135 -6.66865 -22.552 26.6915 9.56074 -20.2031 
24.9043 17.2782 -18.8123 27.7078 0.678913 -17.2716 25.6102 -7.59264 -18.3729 
27.8446 9.05696 -15.9632 26.0111 16.9742 -14.5364 28.6725 -0.0409191 -12.9493 
26.5359 -8.46589 -14.071 28.8117 8.49243 -11.6167 26.9442 16.5567 -10.1633 
29.4454 -0.760435 -8.5405 27.2842 -9.28257 -9.67515 29.5863 7.87143 -7.19247 
27.6973 16.0286 -5.72238 30.021 -1.47485 -4.07442 27.8496 -10.037 -5.21441 
30.1625 7.19751 -2.72008 28.2646 15.393 -1.24307 30.396 -2.17945 0.418872 
28.2288 -10.7244 -0.718813 30.5372 6.47554 1.7705 28.643 14.6545 3.24455 
30.5678 -2.86943 4.90936 28.4196 -11.3401 3.78154 30.7077 5.71029 6.24924 
28.8301 13.8182 7.71046 30.5347 -3.54022 9.36695 28.4197 -11.8798 8.2566 
30.6724 4.90672 10.6861 28.8238 12.8892 12.1247 30.2975 -4.18731 13.762 
28.2301 -12.3402 12.6765 30.4323 4.07045 15.0516 28.625 11.874 16.458 
29.8579 -4.80646 18.065 27.8516 -12.718 17.0116 29.9887 3.20691 19.3164 
28.2349 10.7795 20.6812 -2.50983 12.5952 -53.7694 0.783811 13.8373 -52.9506 
-0.558191 15.2044 -52.6047 -2.21062 16.1124 -52.3011 2.8278 15.3938 -51.5919 
1.05248 17.2023 -51.1343 -1.13352 18.4035 -50.7327 4.85287 16.8474 -49.8883 
2.65609 19.0853 -49.3221 -0.048838 20.5716 -48.8252 6.84556 18.1885 -47.8514 
4.24195 20.8406 -47.1804 1.03618 22.6023 -46.5914 8.7923 19.4075 -45.4937 
5.79945 22.4565 -44.7223 2.11425 24.4814 -44.0453 10.6803 20.497 -42.832 
7.31812 23.9221 -41.9654 3.17816 26.1969 -41.2048 12.497 21.4495 -39.8842 
8.7879 25.2279 -38.9282 4.22088 27.7375 -38.0892 14.2299 22.2582 -36.6688 
10.1988 26.3646 -35.6299 5.23526 29.092 -34.718 15.8676 22.918 -33.2085 
11.5415 27.3251 -32.0935 6.21464 30.252 -31.1149 17.3994 23.4249 -29.5263 
12.8071 28.1031 -28.3427 7.15256 31.2101 -27.3038 18.8145 23.7746 -25.6462 
13.9868 28.6925 -24.4019 8.0425 31.9589 -23.3098 20.1039 23.9654 -21.5945 
15.0731 29.0903 -20.2979 8.87868 32.494 -19.1599 21.259 23.9962 -17.3988 
16.0587 29.2937 -16.0585 9.65554 32.8121 -14.8821 22.2715 23.866 -13.0863 
16.9365 29.3006 -11.7113 10.3677 32.9102 -10.5045 23.1351 23.5764 -8.68632 
17.7013 29.1119 -7.28583 11.0105 32.7883 -6.05663 23.8442 23.1292 -4.22837 
18.3477 28.7286 -2.81171 11.5798 32.4474 -1.56833 24.3935 22.527 0.257967 
18.8712 28.1526 1.68127 12.0714 31.8889 2.93049 24.7798 21.7743 4.74257 
19.2685 27.3886 6.16302 12.4824 31.1173 7.40972 25.0003 20.8759 9.19545 
19.5371 26.4415 10.6036 12.81 30.1379 11.8394 25.0534 19.8377 13.5867 
19.6747 25.3172 14.9731 13.0517 28.9564 16.1898 24.9391 18.667 17.8872 
19.6808 24.0236 19.2425 13.2062 27.5814 20.432 24.6581 17.3715 22.0681 
19.5554 22.5696 23.3833 13.2724 26.0221 24.5376 -4.60061 13.357 -53.4464 
-6.86853 12.8319 -53.3091 -4.06868 16.4834 -52.0623 -6.00094 16.3093 -51.9023 
-7.8766 15.6018 -51.8319 -3.59154 18.8944 -50.4167 -6.14772 18.664 -50.205 
-8.62901 17.728 -50.1119 -3.09039 21.179 -48.4342 -6.2534 20.8939 -48.1723 
-9.32376 19.7358 -48.057 -2.56862 23.322 -46.1281 -6.3173 22.9843 -45.8176 
-9.95618 21.6116 -45.6811 -2.02955 25.3089 -43.5126 -6.33884 24.9205 -43.1557 
-10.5219 23.3427 -42.9987 -1.47699 27.1265 -40.6065 -6.318 26.6903 -40.2055 
-11.0173 24.9177 -40.0292 -0.91455 28.763 -37.4291 -6.25501 28.2818 -36.9868 
-11.4391 26.3263 -36.7922 -0.345941 30.2065 -34.0006 -6.14999 29.6836 -33.5199 
-11.7841 27.5582 -33.3085 0.224972 31.4483 -30.3449 -6.00401 30.8868 -29.8291 
-12.0504 28.606 -29.6022 0.794365 32.4799 -26.4866 -5.81774 31.884 -25.939 
-12.2363 29.4629 -25.6981 1.35838 33.2936 -22.4507 -5.59258 32.6672 -21.875 
-12.3401 30.1221 -21.6218 1.91341 33.885 -18.2646 -5.33004 33.2322 -17.6647 
-12.3613 30.5799 -17.4008 2.45561 34.25 -13.9567 -5.03191 33.5752 -13.3365 
-12.3001 30.8336 -13.0638 2.98131 34.3852 -9.55507 -4.70008 33.693 -8.9189 
-12.1563 30.8804 -8.63907 3.48716 34.2908 -5.08958 -4.33662 33.5856 -4.44163 
-11.9313 30.7209 -4.1566 3.96967 33.9672 -0.590131 -3.94443 33.2539 0.0653014 
-11.6266 30.3561 0.353618 4.42556 33.4159 3.91328 -3.52566 32.6993 4.5718 
-11.244 29.7879 4.86146 4.85192 32.6413 8.39056 -3.08337 31.9262 9.04775 
-10.7862 29.0204 9.3368 5.2458 31.6485 12.8117 -2.62049 30.9395 13.4632 
-10.2563 28.0592 13.7498 5.60456 30.4436 17.147 -2.14 29.7456 17.7884 
-9.65768 26.9098 18.0706 5.92582 29.0352 21.3678 -1.64527 28.353 21.9948 
-8.99452 25.5806 22.2706 6.20753 27.4329 25.4457 -1.1395 26.7708 26.0541 
-8.27125 24.0805 26.3218 -8.70148 11.151 -53.3964 -9.56358 14.3928 -51.8589 
-10.9542 12.7795 -51.9785 -11.9544 10.8709 -52.1825 -10.8607 16.1287 -50.1477 
-12.7003 13.9944 -50.3058 -14.0234 11.4696 -50.5758 -12.0852 17.7568 -48.1013 
-14.3616 15.1158 -48.297 -15.9988 11.9916 -48.631 -13.229 19.2663 -45.7335 
-15.9268 16.1362 -45.9655 -17.8673 12.4335 -46.3613 -14.2841 20.6465 -43.059 
-17.3855 17.0485 -43.3257 -19.616 12.792 -43.7807 -15.2438 21.8888 -40.0969 
-18.7278 17.8467 -40.3964 -21.2336 13.065 -40.9076 -16.1016 22.985 -36.8669 
-19.945 18.5258 -37.1974 -22.7094 13.2508 -37.7613 -16.8515 23.9269 -33.3896 
-21.0285 19.0807 -33.7488 -24.0328 13.3477 -34.3617 -17.4885 24.7089 -29.6893 
-21.9716 19.508 -30.0747 -25.1956 13.3554 -30.7324 -18.0091 25.3259 -25.7905 
-22.7677 19.805 -26.1997 -26.1902 13.2739 -26.8979 -18.4087 25.773 -21.719 
-23.4112 19.9692 -22.1491 -27.0092 13.1034 -22.8831 -18.6853 26.048 -17.5021 
-23.8983 20 -17.9503 -27.6476 12.8453 -18.7152 -18.8371 26.149 -13.1685 
-24.2258 19.8972 -13.6318 -28.1013 12.5014 -14.4224 -18.8625 26.0746 -8.74646 
-24.3906 19.6609 -9.2218 -28.3666 12.0737 -10.0329 -18.762 25.8258 -4.266 
-24.3927 19.2933 -4.75012 -28.4423 11.5653 -5.57627 -18.536 25.4046 0.242961 
-24.2317 18.7967 -0.246764 -28.328 10.9796 -1.08243 -18.1858 24.8131 4.75029 
-23.9082 18.1741 4.25826 -28.0238 10.3203 3.41867 -17.7141 24.0558 9.22589 
-23.4251 17.4301 8.73484 -17.1239 23.1376 13.6398 -22.7853 16.5696 13.153 
-16.4191 22.0644 17.9623 -21.9928 15.5981 17.4831 -26.0014 7.94838 16.6653 
-15.6045 20.8439 22.1648 -21.0533 14.5222 21.6963 -24.9723 7.04395 20.8968 
-14.6856 19.4839 26.2191 -19.9732 13.3494 25.7644 -23.7761 6.09243 24.9887 
-9.61143 8.77503 -53.683 -9.35721 6.33368 -54.0928 -12.482 8.79016 -52.4595 
-12.5164 6.68266 -52.7887 -12.0552 4.69104 -53.1476 -14.7215 8.71696 -50.9422 
-14.767 5.92895 -51.3776 -14.1568 3.29426 -51.8525 -16.8626 8.58551 -49.0845 
-16.9189 5.13563 -49.6232 -16.1639 1.87546 -50.2108 -18.8909 8.39667 -46.8988 
-18.9577 4.308 -47.5373 -18.0629 0.444161 -48.2336 -20.7928 8.15158 -44.3985 
-20.8694 3.45147 -45.1325 -19.8409 -0.990181 -45.933 -22.5556 7.85199 -41.6017 
-22.6418 2.57192 -42.4263 -21.4862 -2.41787 -43.3255 -24.1677 7.49996 -38.527 
-24.2628 1.67514 -39.4366 -22.9881 -3.8294 -40.4287 -25.6178 7.09764 -35.1938 
-25.7212 0.767182 -36.1824 -24.3357 -5.21522 -37.2606 -26.8967 6.64789 -31.6255 
-27.0075 -0.146016 -32.6865 -25.5207 -6.56621 -33.8435 -27.9959 6.15371 -27.8459 
-28.1136 -1.05808 -28.9721 -26.5353 -7.87341 -30.2004 -28.9073 5.61825 -23.8797 
-29.0311 -1.96313 -25.0636 -27.372 -9.12775 -26.3548 -29.6257 5.04529 -19.7537 
-29.7546 -2.8551 -20.9875 -28.0256 -10.3211 -22.333 -30.1461 4.43861 -15.4959 
-30.2793 -3.72799 -16.7713 -28.4921 -11.4455 -18.1621 -30.4642 3.80213 -11.1342 
-30.601 -4.57592 -12.4426 -28.7675 -12.4931 -13.8694 -30.579 3.1403 -6.69799 
-30.7181 -5.39305 -8.03063 -28.8507 -13.4573 -9.48398 -30.4893 2.45746 -2.21709 
-30.6301 -6.17441 -3.56511 -28.7411 -14.3316 -5.03521 -30.1952 1.75813 2.27868 
-30.3368 -6.91423 0.924338 -28.4389 -15.1097 -0.552675 -29.6995 1.04709 6.75924 
-29.8407 -7.60789 5.40761 -27.9464 -15.7869 3.93356 -29.145 -8.2507 9.8547 
-27.2674 -16.3586 8.39348 -28.1164 -0.391237 15.5549 -28.2541 -8.83817 14.2358 
-26.4055 -16.8206 12.7972 -27.0397 -1.10891 19.8113 -27.1745 -9.36667 18.5217 
-25.3672 -17.1702 17.1154 -25.7824 -1.81912 23.9353 -25.9132 -9.8325 22.6839 
-24.1594 -17.4051 21.3191 -7.99767 4.48692 -54.516 -11.1145 2.95735 -53.5124 
-9.77247 1.59026 -53.8583 -8.12004 0.682273 -54.1618 -12.9124 1.00079 -52.335 
-11.137 -0.807735 -52.7926 -8.95105 -2.00889 -53.1942 -14.624 -0.962447 -50.8079 
-12.4272 -3.20032 -51.3741 -9.72224 -4.68666 -51.871 -16.2379 -2.9193 -48.9413 
-13.6343 -5.57147 -49.6123 -10.4285 -7.33314 -50.2013 -17.7429 -4.85653 -46.7465 
-14.75 -7.90546 -47.5179 -11.0648 -9.93044 -48.1949 -19.1293 -6.7614 -44.2394 
-15.7671 -10.1864 -45.106 -11.6272 -12.4613 -45.8666 -20.388 -8.62102 -41.4369 
-16.6789 -12.3994 -42.3928 -12.1119 -14.909 -43.2319 -21.51 -10.4229 -38.3563 
-17.4789 -14.5293 -39.3952 -12.5153 -17.2567 -40.3071 -22.4881 -12.1549 -35.0194 
[...]
CELL_DATA 2304
FIELD FieldData 1
vtkOriginalCellIds 1 2304 vtkIdType
681 0 1 2 3 4 5 6 7 
8 9 10 11 12 13 14 30 31 
32 33 34 35 36 37 38 39 40 
41 42 43 44 45 46 47 66 67 
68 69 70 71 72 73 74 75 76 
77 78 79 80 81 82 83 102 103 
104 105 106 107 108 109 110 111 112 
113 114 115 116 117 118 119 138 139 
140 141 142 143 144 145 146 147 148 
149 150 151 152 153 154 155 174 175 
176 177 178 179 180 181 182 183 184 
185 186 187 188 189 190 191 210 211 
212 213 214 215 216 217 218 219 220 
221 222 223 224 225 226 227 246 247 
248 249 250 251 252 253 254 255 256 
257 258 259 260 261 262 263 300 301 
302 303 304 305 306 307 308 309 310 
311 312 313 314 330 331 332 333 334 
335 336 337 338 339 340 341 342 343 
344 345 346 347 366 367 368 369 370 
371 372 373 374 375 376 377 378 379 
380 381 382 383 402 403 404 405 406 
407 408 409 410 411 412 413 414 415 
416 417 418 419 438 439 440 441 442 
443 444 445 446 447 448 449 450 451 
452 453 454 455 474 475 476 477 478 
479 480 481 482 483 484 485 486 487 
488 489 490 491 510 511 512 513 514 
515 516 517 518 519 520 521 522 523 
524 525 526 527 546 547 548 549 550 
551 552 553 554 555 556 557 558 559 
560 561 562 563 600 601 602 603 604 
605 606 607 608 609 610 611 612 613 
614 630 631 632 633 634 635 636 637 
638 639 640 641 642 643 644 645 646 
647 666 667 668 669 670 671 672 673 
674 675 676 677 678 679 680 681 682 
683 702 703 704 705 706 707 708 709 
710 711 712 713 714 715 716 717 718 
719 738 739 740 741 742 743 744 745 
746 747 748 749 750 751 752 753 754 
755 774 775 776 777 778 779 780 781 
782 783 784 785 786 787 788 789 790 
791 810 811 812 813 814 815 816 817 
818 819 820 821 822 823 824 825 826 
827 846 847 848 849 850 851 852 853 
854 855 856 857 858 859 860 861 862 
863 900 901 902 903 904 905 906 907 
908 909 910 911 912 913 914 930 931 
932 933 934 935 936 937 938 939 940 
941 942 943 944 945 946 947 966 967 
968 969 970 971 972 973 974 975 976 
977 978 979 980 981 982 983 1002 1003 
1004 1005 1006 1007 1008 1009 1010 1011 1012 
1013 1014 1015 1016 1017 1018 1019 1038 1039 
1040 1041 1042 1043 1044 1045 1046 1047 1048 
1049 1050 1051 1052 1053 1054 1055 1074 1075 
1076 1077 1078 1079 1080 1081 1082 1083 1084 
1085 1086 1087 1088 1089 1090 1091 1110 1111 
1112 1113 1114 1115 1116 1117 1118 1119 1120 
1121 1122 1123 1124 1125 1126 1127 1146 1147 
1148 1149 1150 1151 1152 1153 1154 1155 1156 
1157 1158 1159 1160 1161 1162 1163 1200 1201 
1202 1203 1204 1205 1206 1207 1208 1209 1210 
1211 1212 1213 1214 1230 1231 1232 1233 1234 
1235 1236 1237 1238 1239 1240 1241 1242 1243 
1244 1245 1246 1247 1266 1267 1268 1269 1270 
1271 1272 1273 1274 1275 1276 1277 1278 1279 
1280 1281 1282 1283 1302 1303 1304 1305 1306 
1307 1308 1309 1310 1311 1312 1313 1314 1315 
1316 1317 1318 1319 1338 1339 1340 1341 1342 
1343 1344 1345 1346 1347 1348 1349 1350 1351 
1352 1353 1354 1355 1374 1375 1376 1377 1378 
1379 1380 1381 1382 1383 1384 1385 1386 1387 
1388 1389 1390 1391 1410 1411 1412 1413 1414 
1415 1416 1417 1418 1419 1420 1421 1423 1424 
1425 1426 1427 1446 1447 1448 1449 1450 1451 
1452 1453 1454 1455 1456 1457 1458 1459 1460 
1461 1462 1463 1500 1501 1502 1503 1504 1505 
1506 1507 1508 1509 1510 1511 1512 1513 1514 
1530 1531 1532 1533 1534 1535 1536 1537 1538 
1539 1540 1541 1542 1543 1544 1545 1546 1547 
1566 1567 1568 1569 1570 1571 1572 1573 1574 
1575 1576 1577 1578 1579 1580 1581 1582 1583 
1602 1603 1604 1605 1606 1607 1608 1609 1610 
1611 1612 1613 1614 1615 1616 1617 1618 1619 
1638 1639 1640 1641 1642 1643 1644 1645 1646 
1647 1648 1649 1650 1651 1652 1653 1654 1655 
1674 1675 1676 1677 1678 1679 1680 1681 1682 
1683 1684 1685 1686 1687 1688 1689 1690 1691 
1710 1711 1712 1713 1714 1715 1716 1717 1718 
1719 1720 1721 1722 1723 1724 1725 1726 1727 
1746 1747 1748 1749 1750 1751 1752 1753 1754 
1755 1756 1757 1758 1759 1760 1761 1762 1763 
1800 1801 1802 1803 1804 1805 1806 1807 1808 
1809 1810 1811 1812 1813 1814 1830 1831 1832 
1833 1834 1835 1836 1837 1838 1839 1840 1841 
1842 1843 1844 1845 1846 1847 1866 1867 1868 
1869 1870 1871 1872 1873 1874 1875 1876 1877 
1878 1879 1880 1881 1882 1883 1902 1903 1904 
1905 1906 1907 1908 1909 1910 1911 1912 1913 
1914 1915 1916 1917 1918 1919 1938 1939 1940 
1941 1942 1943 1944 1945 1946 1947 1948 1949 
1950 1951 1952 1953 1954 1955 1974 1975 1976 
1977 1978 1979 1980 1981 1982 1983 1984 1985 
1986 1987 1988 1989 1990 1991 2010 2011 2012 
2013 2014 2015 2016 2017 2018 2019 2020 2021 
2022 2023 2024 2025 2026 2027 2046 2047 2048 
2049 2050 2051 2052 2053 2054 2055 2056 2057 
2058 2059 2060 2061 2062 2063 2100 2101 2102 
2103 2104 2105 2106 2107 2108 2109 2110 2111 
2112 2113 2114 2130 2131 2132 2133 2134 2135 
2136 2137 2138 2139 2140 2141 2142 2143 2144 
2145 2146 2147 2166 2167 2168 2169 2170 2171 
2172 2173 2174 2175 2176 2177 2178 2179 2180 
2181 2182 2183 2202 2203 2204 2205 2206 2207 
2208 2209 2210 2211 2212 2213 2214 2215 2216 
2217 2218 2219 2238 2239 2240 2241 2242 2243 
2244 2245 2246 2247 2248 2249 2250 2251 2252 
2253 2254 2255 2274 2275 2276 2277 2278 2279 
2280 2281 2282 2283 2284 2285 2286 2287 2288 
2289 2290 2291 2310 2311 2312 2313 2314 2315 
2316 2317 2318 2319 2320 2321 2322 2323 2324 
2325 2326 2327 2346 2347 2348 2349 2350 2351 
2352 2353 2354 2355 2356 2357 2358 2359 2360 
2361 2362 2363 15 16 17 18 19 20 
21 22 23 24 25 26 27 28 29 
48 49 50 51 52 53 54 55 56 
57 58 59 60 61 62 63 64 65 
84 85 86 87 88 89 90 91 92 
93 94 95 96 97 98 99 100 101 
120 121 122 123 124 125 126 127 128 
129 130 131 132 133 134 135 136 137 
156 157 158 159 160 161 162 163 164 
165 166 167 168 169 170 171 172 173 
192 193 194 195 196 197 198 199 200 
201 202 203 204 205 206 207 208 209 
228 229 230 231 232 233 234 235 236 
237 238 239 240 241 242 243 244 245 
264 265 266 267 268 269 270 271 272 
273 274 275 276 277 278 279 280 281 
315 316 317 318 319 320 321 322 323 
324 325 326 327 328 329 348 349 350 
351 352 353 354 355 356 357 358 359 
360 361 362 363 364 365 384 385 386 
387 388 389 390 391 392 393 394 395 
396 397 398 399 400 401 420 421 422 
423 424 425 426 427 428 429 430 431 
432 433 434 435 436 437 456 457 458 
459 460 461 462 463 464 465 466 467 
468 469 470 471 472 473 492 493 494 
495 496 497 498 499 500 501 502 503 
504 505 506 507 508 509 528 529 530 
531 532 533 534 535 536 537 538 539 
540 541 542 543 544 545 564 565 566 
567 568 569 570 571 572 573 574 575 
576 577 578 579 580 581 615 616 617 
618 619 620 621 622 623 624 625 626 
627 628 629 648 649 650 651 652 653 
654 655 656 657 658 659 660 661 662 
663 664 665 684 685 686 687 688 689 
690 691 692 693 694 695 696 697 698 
699 700 701 720 721 722 723 724 725 
726 727 728 729 730 731 732 733 734 
735 736 737 756 757 758 759 760 761 
762 763 764 765 766 767 768 769 770 
771 772 773 792 793 794 795 796 797 
798 799 800 801 802 803 804 805 806 
807 808 809 828 829 830 831 832 833 
834 835 836 837 838 839 840 841 842 
843 844 845 864 865 866 867 868 869 
870 871 872 873 874 875 876 877 878 
879 880 881 915 916 917 918 919 920 
921 922 923 924 925 926 927 928 929 
948 949 950 951 952 953 954 955 956 
957 958 959 960 961 962 963 964 965 
984 985 986 987 988 989 990 991 992 
993 994 995 996 997 998 999 1000 1001 
1020 1021 1022 1023 1024 1025 1026 1027 1028 
1029 1030 1031 1032 1033 1034 1035 1036 1037 
1056 1057 1058 1059 1060 1061 1062 1063 1064 
1065 1066 1067 1068 1069 1070 1071 1072 1073 
1092 1093 1094 1095 1096 1097 1098 1099 1100 
1101 1102 1103 1104 1105 1106 1107 1108 1109 
1128 1129 1130 1131 1132 1133 1134 1135 1136 
1137 1138 1139 1140 1141 1142 1143 1144 1145 
1164 1165 1166 1167 1168 1169 1170 1171 1172 
1173 1174 1175 1176 1177 1178 1179 1180 1181 
1215 1216 1217 1218 1219 1220 1221 1222 1223 
1224 1225 1226 1227 1228 1229 1248 1249 1250 
1251 1252 1253 1254 1255 1256 1257 1258 1259 
1260 1261 1262 1263 1264 1265 1284 1285 1286 
1287 1288 1289 1290 1291 1292 1293 1294 1295 
1296 1297 1298 1299 1300 1301 1320 1321 1322 
1323 1324 1325 1326 1327 1328 1329 1330 1331 
1332 1333 1334 1335 1336 1337 1356 1357 1358 
1359 1360 1361 1362 1363 1364 1365 1366 1367 
1368 1369 1370 1371 1372 1373 1392 1393 1394 
1395 1396 1397 1398 1399 1400 1401 1402 1403 
1404 1405 1406 1407 1408 1409 1428 1429 1430 
1431 1432 1433 1434 1435 1436 1437 1438 1439 
1440 1441 1442 1443 1444 1445 1464 1465 1466 
1467 1468 1469 1470 1471 1472 1473 1474 1475 
1476 1477 1478 1479 1480 1481 1515 1516 1517 
1518 1519 1520 1521 1522 1523 1524 1525 1526 
1527 1528 1529 1548 1549 1550 1551 1552 1553 
1554 1555 1556 1557 1558 1559 1560 1561 1562 
1563 1564 1565 1584 1585 1586 1587 1588 1589 
1590 1591 1592 1593 1594 1595 1596 1597 1598 
1599 1600 1601 1620 1621 1622 1623 1624 1625 
1626 1627 1628 1629 1630 1631 1632 1633 1634 
1635 1636 1637 1656 1657 1658 1659 1660 1661 
1662 1663 1664 1665 1666 1667 1668 1669 1670 
1671 1672 1673 1692 1693 1694 1695 1696 1697 
1698 1699 1700 1701 1702 1703 1704 1705 1706 
1707 1708 1709 1728 1729 1730 1731 1732 1733 
1734 1735 1736 1737 1738 1739 1740 1741 1742 
1743 1744 1745 1764 1765 1766 1767 1768 1769 
1770 1771 1772 1773 1774 1775 1776 1777 1778 
1779 1780 1781 1815 1816 1817 1818 1819 1820 
1821 1822 1823 1824 1825 1826 1827 1828 1829 
1848 1849 1850 1851 1852 1853 1854 1855 1856 
1857 1858 1859 1860 1861 1862 1863 1864 1865 
1884 1885 1886 1887 1888 1889 1890 1891 1892 
1893 1894 1895 1896 1897 1898 1899 1900 1901 
1920 1921 1922 1923 1924 1925 1926 1927 1928 
1929 1930 1931 1932 1933 1934 1935 1936 1937 
1956 1957 1958 1959 1960 1961 1962 1963 1964 
1965 1966 1967 1968 1969 1970 1971 1972 1973 
1992 1993 1994 1995 1996 1997 1998 1999 2000 
2001 2002 2003 2004 2005 2006 2007 2008 2009 
2028 2029 2030 2031 2032 2033 2034 2035 2036 
2037 2038 2039 2040 2041 2042 2043 2044 2045 
2064 2065 2066 2067 2068 2069 2070 2071 2072 
2073 2074 2075 2076 2077 2078 2079 2080 2081 
2115 2116 2117 2118 2119 2120 2121 2122 2123 
2124 2125 2126 2127 2128 2129 2148 2149 2150 
2151 2152 2153 2154 2155 2156 2157 2158 2159 
2160 2161 2162 2163 2164 2165 2184 2185 2186 
2187 2188 2189 2190 2191 2192 2193 2194 2195 
2196 2197 2198 2199 2200 2201 2220 2221 2222 
2223 2224 2225 2226 2227 2228 2229 2230 2231 
2232 2233 2234 2235 2236 2237 2256 2257 2258 
2259 2260 2261 2262 2263 2264 2265 2266 2267 
2268 2269 2270 2271 2272 2273 2292 2293 2294 
2295 2296 2297 2298 2299 2300 2301 2302 2303 
2304 2305 2306 2307 2308 2309 2328 2329 2330 
2331 2332 2333 2334 2335 2336 2337 2338 2339 
2340 2341 2342 2343 2344 2345 2364 2365 2366 
2367 2368 2369 2370 2371 2372 2373 2374 2375 
2376 2377 2378 2379 2380 2381 0 1 2 
3 4 5 6 7 9 10 11 14 
15 17 18 19 20 21 22 23 24 
25 26 28 30 31 36 37 38 40 
41 42 45 46 49 50 51 54 56 
57 60 62 63 64 65 66 68 69 

POINT_DATA 1082
FIELD FieldData 1
vtkOriginalPointIds 1 1082 vtkIdType
300 373 303 0 5 8 9 10 11 
12 26 27 28 29 30 31 32 33 
34 35 36 37 50 51 52 53 54 
55 56 57 58 59 60 61 74 75 
76 77 78 79 80 81 82 83 84 
85 98 99 100 101 102 103 104 105 
106 107 108 109 122 123 124 125 126 
127 128 129 130 131 132 133 146 147 
148 149 150 151 152 153 154 155 156 
157 170 171 172 173 174 175 176 177 
25 43 24 26 206 208 209 210 220 
221 222 223 224 225 226 227 228 238 
239 240 241 242 243 244 245 246 256 
257 258 259 260 261 262 263 264 274 
275 276 277 278 279 280 281 282 292 
293 294 295 296 297 298 299 300 310 
311 312 313 314 315 316 317 318 328 
329 330 331 332 333 28 27 29 355 
357 358 359 360 370 371 372 373 374 
375 376 377 378 388 389 390 391 392 
393 394 395 396 406 407 408 409 410 
411 412 413 414 424 425 426 427 428 
429 430 431 432 442 443 444 445 446 
447 448 449 450 460 461 462 463 464 
465 466 467 468 478 479 480 481 482 
483 44 31 30 506 508 509 510 520 
521 522 523 524 525 526 527 528 538 
539 540 541 542 543 544 545 546 556 
557 558 559 560 561 562 563 564 574 
575 576 577 578 579 580 581 582 592 
593 594 595 596 597 598 599 600 610 
611 612 613 614 616 617 628 629 630 
631 632 633 33 32 39 655 657 658 
659 660 670 671 672 673 674 675 676 
677 678 688 689 690 691 692 693 694 
695 696 706 707 708 709 710 711 712 
713 714 724 725 726 727 728 729 730 
731 732 742 743 744 745 746 747 748 
749 750 760 761 762 763 764 765 767 
768 778 779 780 781 782 783 45 41 
40 806 808 809 810 820 821 822 823 
824 825 826 827 828 838 839 840 841 
842 843 844 845 846 856 857 858 859 
860 861 862 863 864 874 875 876 877 
878 879 880 881 882 892 893 894 895 
896 897 898 899 900 910 911 912 913 
914 915 916 917 918 928 929 930 931 
932 933 35 34 38 955 957 958 959 
960 970 971 972 973 974 975 976 977 
978 988 989 990 991 992 993 994 995 
996 1006 1007 1008 1009 1010 1011 1012 1013 
1014 1024 1025 1026 1027 1028 1029 1030 1031 
1032 1042 1043 1044 1045 1046 1047 1048 1049 
1050 1060 1061 1062 1063 1064 1065 1066 1067 
1068 1078 1079 1080 1081 1082 1083 46 37 
36 1105 1106 1107 1114 1115 1116 1117 1118 
1119 1126 1127 1128 1129 1130 1131 1138 1139 
1140 1141 1142 1143 1150 1151 1152 1153 1154 
1155 1162 1163 1164 1165 1166 1167 1174 1175 
1176 1177 1178 1179 1186 1187 1188 1189 42 
47 13 18 21 22 23 24 25 38 
39 40 41 42 43 44 45 46 47 
48 49 62 63 64 65 66 67 68 
69 70 71 72 73 86 87 88 89 
90 91 92 93 94 95 96 97 110 
111 112 113 114 115 116 117 118 119 
120 121 134 135 136 137 138 139 140 
141 142 143 144 145 158 159 160 161 
162 163 164 165 166 167 168 169 182 
183 184 185 186 187 188 189 2 1 
3 4 215 217 218 219 229 230 231 
232 233 234 235 236 237 247 248 249 
250 251 252 253 254 255 265 266 267 
268 269 270 271 272 273 283 284 285 
286 287 288 289 290 291 301 302 303 
304 305 306 307 308 309 319 320 321 
322 323 324 325 326 327 337 338 339 
340 341 342 5 21 6 364 366 367 
368 369 379 380 381 382 383 384 385 
386 387 397 398 399 400 401 402 403 
404 405 415 416 417 418 419 420 421 
422 423 433 434 435 436 437 438 439 
440 441 451 452 453 454 455 456 457 
458 459 469 470 471 472 473 474 475 
476 477 487 488 489 490 491 492 7 
8 9 515 517 518 519 529 530 531 
532 533 534 535 536 537 547 548 549 
550 551 552 553 554 555 565 566 567 
568 569 570 571 572 573 583 584 585 
586 587 588 589 590 591 601 602 603 
604 605 606 607 608 609 619 620 621 
622 623 624 625 626 627 637 638 639 
640 641 642 10 22 13 664 666 667 
668 669 679 680 681 682 683 684 685 
686 687 697 698 699 700 701 702 703 
704 705 715 716 717 718 719 720 721 
722 723 733 734 735 736 737 738 739 
740 741 751 752 753 754 755 756 757 
758 759 769 770 771 772 773 774 775 
776 777 787 788 789 790 791 792 14 
15 16 815 817 818 819 829 830 831 
832 833 834 835 836 837 847 848 849 
850 851 852 853 854 855 865 866 867 
868 869 870 871 872 873 883 884 885 
886 887 888 889 890 891 901 902 903 
904 905 906 907 908 909 919 920 921 
922 923 924 925 926 927 937 938 939 
940 941 942 17 23 18 964 966 967 
968 969 979 980 981 982 983 984 985 
986 987 997 998 999 1000 1001 1002 1003 
1004 1005 1015 1016 1017 1018 1019 1020 1021 
1022 1023 1033 1034 1035 1036 1037 1038 1039 
1040 1041 1051 1052 1053 1054 1055 1056 1057 
1058 1059 1069 1070 1071 1072 1073 1074 1075 
1076 1077 1087 1088 1089 1090 1091 1092 19 
20 11 1111 1112 1113 1120 1121 1122 1123 
1124 1125 1132 1133 1134 1135 1136 1137 1144 
1145 1146 1147 1148 1149 1156 1157 1158 1159 
1160 1161 1168 1169 1170 1171 1172 1173 1180 
1181 1182 1183 1184 1185 1192 1193 1194 1195 
12 0 
