# vtk DataFile Version 5.1
vtk output
ASCII
DATASET POLYDATA
POINTS 15502 float
0.106061 -0.378788 0.45 0.106061 -0.385464 0.45 0.111234 -0.383961 0.45 
-0.127988 -0.378788 0.45 -0.12359 -0.380371 0.45 -0.106061 -0.378788 0.45 
-0.118196 -0.381938 0.45 -0.106061 -0.385464 0.45 -0.0968931 -0.387955 0.45 
-0.0757576 -0.378788 0.45 -0.0939807 -0.388606 0.45 -0.0757576 -0.39268 0.45 
-0.0454545 -0.378788 0.45 -0.0454545 -0.397234 0.45 -0.0591883 -0.395357 0.45 
-0.0501265 -0.396792 0.45 -0.0250846 -0.399158 0.45 -0.0151515 -0.378788 0.45 
-0.0194985 -0.399333 0.45 -0.0151515 -0.39947 0.45 0.0151515 -0.378788 0.45 
0.0151515 -0.39947 0.45 0.00582369 -0.399763 0.45 0.0454545 -0.378788 0.45 
0.0454545 -0.397234 0.45 0.0346217 -0.398258 0.45 0.0757576 -0.378788 0.45 
0.0757576 -0.39268 0.45 0.0616361 -0.394969 0.45 0.0749424 -0.392862 0.45 
0.0871115 -0.390142 0.45 0.0994626 -0.387381 0.45 0.104857 -0.385814 0.45 
0.127988 -0.378788 0.45 0.12359 -0.380371 0.45 -0.0994626 -0.387381 0.45 
-0.0749424 -0.392862 0.45 -0.0693944 -0.393741 0.45 -0.0445343 -0.397321 0.45 
-0.0251128 -0.399157 0.45 0.00561436 -0.39977 0.45 -7.11237e-17 -0.399946 0.45 
0.030705 -0.398628 0.45 0.0251128 -0.399157 0.45 0.0501265 -0.396792 0.45 
0.0556745 -0.395914 0.45 0.0804243 -0.391637 0.45 -0.166667 -0.348485 0.45 
-0.196041 -0.348485 0.45 -0.166667 -0.363449 0.45 -0.192676 -0.350475 0.45 
-0.187671 -0.353026 0.45 -0.170289 -0.361882 0.45 0.136364 -0.375773 0.45 
0.155961 -0.368082 0.45 0.136364 -0.348485 0.45 0.152385 -0.36963 0.45 
0.14723 -0.37186 0.45 -0.136364 -0.348485 0.45 -0.136364 -0.375773 0.45 
-0.141075 -0.374076 0.45 -0.106061 -0.348485 0.45 -0.0757576 -0.348485 0.45 
-0.0454545 -0.348485 0.45 -0.0151515 -0.348485 0.45 0.0151515 -0.348485 0.45 
0.0454545 -0.348485 0.45 0.0757576 -0.348485 0.45 0.106061 -0.348485 0.45 
0.134147 -0.376571 0.45 0.166667 -0.348485 0.45 0.166667 -0.363449 0.45 
0.176764 -0.358583 0.45 0.196041 -0.348485 0.45 0.192676 -0.350475 0.45 
-0.165134 -0.364113 0.45 -0.14723 -0.37186 0.45 -0.141945 -0.373763 0.45 
-0.24202 -0.318182 0.45 -0.235082 -0.323563 0.45 -0.227273 -0.318182 0.45 
-0.230437 -0.326721 0.45 -0.227273 -0.328871 0.45 -0.19697 -0.318182 0.45 
-0.19697 -0.347936 0.45 -0.198313 -0.347141 0.45 -0.166667 -0.318182 0.45 
0.128875 -0.378469 0.45 -0.136364 -0.318182 0.45 0.136364 -0.318182 0.45 
-0.106061 -0.318182 0.45 0.170289 -0.361882 0.45 0.175294 -0.359332 0.45 
-0.0757576 -0.318182 0.45 -0.0454545 -0.318182 0.45 -0.0151515 -0.318182 0.45 
0.0151515 -0.318182 0.45 0.0454545 -0.318182 0.45 0.0757576 -0.318182 0.45 
0.106061 -0.318182 0.45 0.166667 -0.318182 0.45 0.19697 -0.318182 0.45 
0.214302 -0.337686 0.45 0.215595 -0.336807 0.45 0.19751 -0.347616 0.45 
0.19697 -0.347936 0.45 0.227273 -0.318182 0.45 0.227273 -0.328871 0.45 
0.233637 -0.324546 0.45 -0.214302 -0.337686 0.45 -0.209467 -0.340545 0.45 
-0.257576 -0.287879 0.45 -0.277451 -0.287879 0.45 -0.257576 -0.305836 0.45 
-0.273782 -0.291548 0.45 -0.269568 -0.295263 0.45 -0.227273 -0.287879 0.45 
-0.19697 -0.287879 0.45 -0.166667 -0.287879 0.45 -0.136364 -0.287879 0.45 
0.136364 -0.287879 0.45 -0.106061 -0.287879 0.45 0.196625 -0.34814 0.45 
-0.0757576 -0.287879 0.45 -0.0454545 -0.287879 0.45 0.218948 -0.334528 0.45 
-0.0151515 -0.287879 0.45 0.235082 -0.323563 0.45 0.239521 -0.32012 0.45 
0.24202 -0.318182 0.45 0.0151515 -0.287879 0.45 0.0454545 -0.287879 0.45 
0.0757576 -0.287879 0.45 0.106061 -0.287879 0.45 0.166667 -0.287879 0.45 
0.19697 -0.287879 0.45 0.25078 -0.311387 0.45 0.227273 -0.287879 0.45 
0.257576 -0.305836 0.45 0.259149 -0.304449 0.45 0.257576 -0.287879 0.45 
0.267119 -0.297422 0.45 -0.254935 -0.308164 0.45 -0.250497 -0.311607 0.45 
-0.287879 -0.257576 0.45 -0.287879 -0.277451 0.45 -0.287576 -0.277754 0.45 
-0.257576 -0.257576 0.45 -0.227273 -0.257576 0.45 -0.19697 -0.257576 0.45 
-0.166667 -0.257576 0.45 -0.136364 -0.257576 0.45 0.136364 -0.257576 0.45 
-0.106061 -0.257576 0.45 -0.0757576 -0.257576 0.45 -0.0454545 -0.260487 0.45 
-0.0419949 -0.261035 0.45 -0.0151515 -0.264045 0.45 -0.00847194 -0.264255 0.45 
0.254935 -0.308164 0.45 0.0151515 -0.264045 0.45 0.0211465 -0.263571 0.45 
0.0166094 -0.264 0.45 0.277451 -0.287879 0.45 0.273782 -0.291548 0.45 
0.0454545 -0.260487 0.45 0.0479681 -0.260089 0.45 0.0459308 -0.260412 0.45 
0.0757576 -0.257576 0.45 0.106061 -0.257576 0.45 0.166667 -0.257576 0.45 
0.19697 -0.257576 0.45 0.227273 -0.257576 0.45 0.282665 -0.282665 0.45 
0.257576 -0.257576 0.45 0.277754 -0.287576 0.45 0.287879 -0.257576 0.45 
0.287879 -0.277451 0.45 0.297422 -0.267119 0.45 0.291548 -0.273782 0.45 
0.295263 -0.269568 0.45 -0.305836 -0.257576 0.45 -0.304449 -0.259149 0.45 
-0.291548 -0.273782 0.45 -0.318182 -0.227273 0.45 -0.318182 -0.24202 0.45 
-0.308164 -0.254935 0.45 -0.0596789 -0.257576 0.45 -0.0531587 -0.259033 0.45 
-0.0495664 -0.259836 0.45 -0.287879 -0.227273 0.45 -0.0166094 -0.264 0.45 
-0.020274 -0.263653 0.45 -0.0331533 -0.262436 0.45 -0.0367889 -0.26186 0.45 
-0.257576 -0.227273 0.45 0.0129303 -0.264115 0.45 -4.85723e-17 -0.264522 0.45 
-0.0036791 -0.264406 0.45 -0.227273 -0.227273 0.45 0.0331533 -0.262436 0.45 
0.0294888 -0.262782 0.45 -0.19697 -0.227273 0.45 0.059679 -0.257576 0.45 
0.0495664 -0.259836 0.45 -0.166667 -0.227273 0.45 -0.136364 -0.227273 0.45 
0.166667 -0.227273 0.45 0.136364 -0.227273 0.45 -0.106061 -0.242188 0.45 
-0.0817678 -0.251566 0.45 -0.085205 -0.250328 0.45 -0.0973769 -0.245946 0.45 
-0.100755 -0.244484 0.45 -0.0657838 -0.256211 0.45 -0.0693186 -0.255184 0.45 
-0.0757576 -0.253314 0.45 0.0724549 -0.254273 0.45 0.0657838 -0.256211 0.45 
0.0621916 -0.257014 0.45 0.305836 -0.257576 0.45 0.0757576 -0.253314 0.45 
0.0952107 -0.246726 0.45 0.0939136 -0.247193 0.45 0.0817417 -0.251575 0.45 
0.0782069 -0.252602 0.45 0.106061 -0.242188 0.45 0.116276 -0.237488 0.45 
0.112628 -0.239346 0.45 0.10925 -0.240808 0.45 0.19697 -0.227273 0.45 
0.227273 -0.227273 0.45 0.257576 -0.227273 0.45 0.311387 -0.25078 0.45 
0.287879 -0.227273 0.45 0.308164 -0.254935 0.45 0.318182 -0.227273 0.45 
0.318182 -0.24202 0.45 0.324546 -0.233637 0.45 0.323563 -0.235082 0.45 
-0.328871 -0.227273 0.45 -0.323563 -0.235082 0.45 -0.32012 -0.239521 0.45 
-0.135093 -0.227273 0.45 -0.130603 -0.229928 0.45 -0.127434 -0.231802 0.45 
-0.115908 -0.237675 0.45 -0.112628 -0.239346 0.45 -0.347141 -0.198313 0.45 
-0.337686 -0.214302 0.45 -0.334528 -0.218948 0.45 -0.0817417 -0.251575 0.45 
-0.318182 -0.19697 0.45 -0.287879 -0.19697 0.45 -0.257576 -0.19697 0.45 
-0.227273 -0.19697 0.45 -0.19697 -0.19697 0.45 -0.138203 -0.225433 0.45 
-0.141738 -0.223343 0.45 -0.144782 -0.221274 0.45 -0.155482 -0.214002 0.45 
-0.15839 -0.211746 0.45 -0.166667 -0.205327 0.45 0.0973769 -0.245946 0.45 
-0.136364 -0.226521 0.45 0.135093 -0.227273 0.45 0.127434 -0.231802 0.45 
0.124155 -0.233473 0.45 0.166667 -0.205327 0.45 0.165704 -0.206073 0.45 
0.155482 -0.214002 0.45 0.15424 -0.214846 0.45 0.311607 -0.250497 0.45 
0.326721 -0.230437 0.45 0.328871 -0.227273 0.45 0.135891 -0.2268 0.45 
0.136364 -0.226521 0.45 0.152437 -0.216071 0.45 0.141738 -0.223343 0.45 
0.138569 -0.225217 0.45 0.171218 -0.201521 0.45 0.168612 -0.203817 0.45 
0.19697 -0.19697 0.45 0.227273 -0.19697 0.45 0.257576 -0.19697 0.45 
0.287879 -0.19697 0.45 0.336807 -0.215595 0.45 0.318182 -0.19697 0.45 
-0.348485 -0.166667 0.45 -0.363449 -0.166667 0.45 -0.348485 -0.196041 0.45 
-0.361882 -0.170289 0.45 -0.359332 -0.175294 0.45 -0.350475 -0.192676 0.45 
-0.347936 -0.19697 0.45 -0.347616 -0.19751 0.45 -0.17638 -0.19697 0.45 
-0.171374 -0.201383 0.45 -0.168612 -0.203817 0.45 -0.318182 -0.166667 0.45 
-0.287879 -0.166667 0.45 -0.257576 -0.166667 0.45 -0.227273 -0.166667 0.45 
-0.181077 -0.192828 0.45 -0.18368 -0.190225 0.45 -0.192828 -0.181077 0.45 
-0.195262 -0.178316 0.45 -0.19697 -0.17638 0.45 0.17638 -0.19697 0.45 
0.347936 -0.19697 0.45 0.340545 -0.209467 0.45 0.337686 -0.214302 0.45 
0.186953 -0.186953 0.45 0.181077 -0.192828 0.45 0.178316 -0.195262 0.45 
0.201521 -0.171218 0.45 0.201383 -0.171374 0.45 0.19697 -0.17638 0.45 
0.227273 -0.166667 0.45 0.257576 -0.166667 0.45 0.287879 -0.166667 0.45 
0.34814 -0.196625 0.45 0.318182 -0.166667 0.45 0.348485 -0.196041 0.45 
0.358583 -0.176764 0.45 0.348485 -0.166667 0.45 0.353026 -0.187671 0.45 
0.350475 -0.192676 0.45 -0.348485 -0.136364 0.45 -0.375773 -0.136364 0.45 
-0.374076 -0.141075 0.45 -0.205327 -0.166667 0.45 -0.203817 -0.168612 0.45 
-0.37186 -0.14723 0.45 -0.36963 -0.152385 0.45 -0.318182 -0.136364 0.45 
-0.287879 -0.136364 0.45 -0.257576 -0.136364 0.45 -0.225433 -0.138203 0.45 
-0.227273 -0.136364 0.45 -0.225217 -0.138569 0.45 -0.223343 -0.141738 0.45 
-0.216071 -0.152437 0.45 -0.214002 -0.155482 0.45 -0.206073 -0.165704 0.45 
0.192828 -0.181077 0.45 0.190225 -0.18368 0.45 0.205327 -0.166667 0.45 
0.203817 -0.168612 0.45 0.363449 -0.166667 0.45 0.361882 -0.170289 0.45 
0.214846 -0.15424 0.45 0.214002 -0.155482 0.45 0.211746 -0.15839 0.45 
0.227273 -0.136364 0.45 0.257576 -0.136364 0.45 0.287879 -0.136364 0.45 
0.318182 -0.136364 0.45 0.368082 -0.155961 0.45 0.348485 -0.136364 0.45 
0.364113 -0.165134 0.45 -0.348485 -0.106061 0.45 -0.378788 -0.106061 0.45 
-0.385464 -0.106061 0.45 -0.378788 -0.127988 0.45 -0.380371 -0.12359 0.45 
-0.226521 -0.136364 0.45 -0.378469 -0.128875 0.45 -0.318182 -0.106061 0.45 
-0.287879 -0.106061 0.45 -0.257576 -0.106061 0.45 -0.227273 -0.135093 0.45 
0.226521 -0.136364 0.45 0.223343 -0.141738 0.45 0.221274 -0.144782 0.45 
0.375773 -0.136364 0.45 0.373763 -0.141945 0.45 0.37186 -0.14723 0.45 
0.2268 -0.135891 0.45 0.227273 -0.135093 0.45 0.237488 -0.116276 0.45 
0.231802 -0.127434 0.45 0.229928 -0.130603 0.45 0.257576 -0.106061 0.45 
0.287879 -0.106061 0.45 0.318182 -0.106061 0.45 0.376571 -0.134147 0.45 
0.348485 -0.106061 0.45 0.378788 -0.127988 0.45 0.383961 -0.111234 0.45 
0.378788 -0.106061 0.45 0.381938 -0.118196 0.45 0.380371 -0.12359 0.45 
-0.348485 -0.0757576 0.45 -0.378788 -0.0757576 0.45 -0.39268 -0.0757576 0.45 
[...]
CELL_DATA 31000
SCALARS Distance double
LOOKUP_TABLE default
0.11122642637 0.11114238541 0.11122643116 0.11122642698 0.10719137256 0.1091803781 0.10918037381 0.10373340633 0.10903417003 
0.11299213638 0.10172907073 0.10714338112 0.10714337736 0.10095216516 0.10687499483 0.10172958496 0.10698756952 0.10380274887 
0.10774626211 0.11305089893 0.10719137379 0.1110849074 0.111226427 0.11122642467 0.11114238502 0.11298204121 0.11117909429 
0.11303051391 0.10910351615 0.11306048506 0.11305089492 0.10780406186 0.10780406324 0.10780355801 0.10703861882 0.11287399668 
0.11296452184 0.10697166475 0.11289378788 0.1129760567 0.10768576025 0.11301484384 0.11298123257 0.10918036843 0.10918037256 
0.10903223194 0.11292407872 0.11299470271 0.11299470389 0.10555320902 0.11287281802 0.11296973828 0.10154422906 0.10880460911 
0.093337901329 0.086375143563 0.081390640816 0.078439266693 0.077761186349 0.079241598424 0.082737725881 0.088471138294 0.095421034601 
0.10277204978 0.10175186935 0.10568408422 0.1091031814 0.1129953565 0.10901222619 0.11294782828 0.11296451488 0.11284803072 
0.10358433422 0.11095934543 0.096812367513 0.091304850771 0.087833864157 0.086361544257 0.087017870229 0.11047966737 0.11053088694 
0.11053087366 0.089947587116 0.10282905699 0.11014590934 0.094842423299 0.089874119933 0.10085736045 0.11097014228 0.11104618152 
0.078507027101 0.086411250745 0.069030162725 0.10915709659 0.10917381148 0.10917348659 0.061415565588 0.056123475685 0.052982150561 
0.052213568398 0.053778893926 0.057615180002 0.063794072159 0.071918153579 0.082003643007 0.10571977082 0.1057293552 0.1057293487 
0.11053087109 0.11053087162 0.11042989181 0.11016492514 0.10146611052 0.10901348645 0.089857002396 0.079939855604 0.071981289266 
0.065938908501 0.06226580803 0.060718122618 0.10911213383 0.11301000105 0.11297224354 0.061463448383 0.096904844552 0.064544250337 
0.081375716455 0.069660511258 0.067546726004 0.077051863467 0.055333092622 0.06293038383 0.045118488925 0.097471854705 0.10902069556 
0.037160710032 0.093980081877 0.10133164037 0.031281410865 0.10312292163 0.10567035762 0.10565410212 0.027995551364 0.11053909507 
0.11049526635 0.11047412478 0.027140328639 0.028782596908 0.033040283684 0.039494870677 0.048352537376 0.074885180629 0.088539032755 
0.1010306182 0.11047411824 0.10920544158 0.10920544025 0.1062850587 0.11041083352 0.11047412013 0.11047412129 0.093415799051 
0.079225135277 0.066800183138 0.056085996464 0.04752664718 0.04120329006 0.037109937861 0.10501418784 0.10903811143 0.10903811143 
0.035492563115 0.089246388772 0.036322784464 0.072718864189 0.039542876116 0.057683668728 0.045193042469 0.044357987746 0.052993247638 
0.032999496809 0.040384820533 0.023790155566 0.059203694358 0.016936960705 0.071886680542 0.013237466275 0.005922529356 0.086287776621 
0.012512448005 0.0060727395633 0.099611137731 0.10355526567 0.11302973374 0.013415574506 0.0070508083508 0.0070260486744 0.10911213135 
0.11298710744 0.015918132834 0.008743122562 0.0086999240632 0.021228318449 0.016082614835 0.0253847387 0.05290804018 0.06749337125 
0.083508840731 0.098879169626 0.10903811143 0.10906547665 0.10911213249 0.11301000105 0.11297224219 0.10911213253 0.11297225172 
0.11297224713 0.094855252064 0.077084103348 0.060756722847 0.045976909831 0.032932990131 0.022114648425 0.013361755551 0.10634834595 
0.10896456032 0.10920543624 0.0079942467031 0.007046087068 0.007141434872 0.0072039108689 0.089246385673 0.0063300644478 0.0062798895813 
0.0062798924196 0.006217406409 0.0060654540069 0.070514682691 0.0063300659071 0.0063300593707 0.0062675780457 0.0061236965289 0.053023457018 
0.0072039133187 0.0071414314506 0.0070508078864 0.037139715323 0.0098636579573 0.0088330705159 0.0088056044901 0.022857666226 0.029677565902 
0.010784067437 0.016060791144 0.0044679072454 0.0010199951413 0.000956276632 0.00089520106403 0.00073821122287 0.037158355963 0.00097773346995 
0.0010815295529 0.001081524771 0.050678419505 0.06598221042 0.082740525797 0.098879427055 0.10290308719 0.0010815237993 0.0010204517973 
0.00092679229429 0.10920543687 0.0045215017213 0.0036686202216 0.0036686182142 0.0036075484102 0.0035041599328 0.010778947218 0.0071942517038 
0.0071317705372 0.0070103084027 0.018687046988 0.032140741182 0.047486864742 0.064486079895 0.082740525797 0.099541904199 0.10911090488 
0.10920543749 0.11045561237 0.11303672416 0.11053086671 0.11049526635 0.11047412478 0.096904845171 0.077084103407 0.058457477099 
0.041212590978 0.025447243293 0.011635992602 0.0033612850853 0.0032953919698 0.0034430170399 0.0035040911422 0.0036705040624 0.0037315777662 
0.1101969272 0.11296453565 0.11275101319 0.0010815286072 0.0010810684512 0.093415798566 0.072718859179 0.053023457018 0.034697414133 
0.017805423261 0.0010815299058 0.0045538856851 0.004493233229 0.0045613732857 0.0045613735933 0.0045820978644 0.0045820959725 0.0037315793566 
0.0036933805753 0.00017093185667 0.0072911470844 0.0071162783502 0.0071942537362 0.007194252768 0.0045820991366 0.0045820979173 0.0045614705289 
0.030530502773 0.046744107869 0.064486079895 0.083508840731 0.10103061723 0.11047411798 0.11047412129 0.11053087556 0.11053087366 
0.00017092894885 0.004518433508 0.0045613747712 0.0045613721443 0.004500298184 0.0043967077834 0.014286678352 0.0097160853536 0.0096742913896 
0.028782845978 0.046744108399 0.065982211944 0.086287776621 0.1031229252 0.11053087228 0.10903223163 0.11292407991 0.11299535923 
0.11299535805 0.10282905699 0.11014591187 0.11014591732 0.081375716455 0.060756718255 0.041212589697 0.022963986862 0.0079796877669 
0.0043492237251 0.0045210280544 0.004582098297 0.0001709303066 0.10147352669 0.10572934613 0.079225134895 0.057683672053 0.037139722304 
0.017805419377 0.0036393318362 0.0037432409135 0.0037432409135 0.0036821695165 0.0035979992923 0.00017093126155 0.013397041359 0.0097160823765 
0.028782845978 0.047486864844 0.067493373685 0.088539033308 0.10570124385 0.11303776119 0.11305077365 0.0037432436977 0.0036821695165 
0.0035979992923 0.013397049456 0.0035980050295 0.0035980035299 0.030530500102 0.050678420869 0.071886680542 0.093980084982 0.10572934602 
0.10910317976 0.11299534825 0.1130229102 0.10154422925 0.10880460911 0.089874119777 0.067546719793 0.045976903362 0.025447242918 
0.0079378864471 0.0035571460088 0.0035980009729 0.10901221827 0.10912982682 0.10912983491 0.089857002396 0.066800183753 0.044357990894 
0.022857666226 0.0045538867497 0.0044321610251 0.004500298184 0.0045613721443 0.0045613724519 0.0045820979173 0.0045820991366 0.0036393318362 
0.0037432409135 0.0037432436977 0.014286676375 0.0096742893066 0.0097160934826 0.032140743597 0.05290804018 0.074885183188 0.09748403797 
0.10133921439 0.10910738114 0.11301166087 0.0045614705289 0.0045820979824 0.0045820960905 0.016060789692 0.037158346346 0.059203694109 
0.082003643007 0.10175186461 0.10912983128 0.10913130868 0.093337901329 0.1111423812 0.11298154575 0.078507027266 0.055333092675 
0.032932990131 0.011635992748 0.00017092727361 0.10358433565 0.10571101887 0.10571102102 0.07993985559 0.056085996671 0.032999496636 
0.010784066975 0.00017092857771 0.0045184302232 0.0044577777671 0.0045613732857 0.0045613759126 0.018687046704 0.040384823817 0.06293038383 
0.086411250556 0.10555320902 0.1128953014 0.11297829853 0.00017093216258 0.0072911469977 0.0071942555632 0.0071317740714 0.0071162750222 
0.0253847387 0.048352537518 0.071918154207 0.095421036307 0.10571101944 0.11114238504 0.11298154981 0.11301501245 0.086375144431 
0.10719136966 0.11107303713 0.11107304141 0.0690301598 0.045118489499 0.022114652065 0.0037315791987 0.0037315758416 0.003516928462 
0.0035040913425 0.0033564691678 0.0033612879392 0.11118390956 0.111226427 0.11122642467 0.096812367513 0.071981287959 0.047526647273 
0.023790153608 0.0046248916781 0.0036686196936 0.0036708957977 0.0037315795917 0.00017093098127 0.010778945122 0.0070727869431 0.0071942527046 
0.0071942554134 0.029677565966 0.052993247638 0.077051864297 0.10097503218 0.10277205342 0.11122642639 0.003693381495 0.0037315782548 
0.003731578941 0.016082621511 0.039494870677 0.063794073757 0.08847113843 0.1071913724 0.11107304726 0.11114394572 0.1112264249 
0.10373341055 0.10903418246 0.10911854153 0.10911853586 0.10156556757 0.10762438755 0.061415565588 0.037160710266 0.013361755085 
0.0010810618199 0.0010815227719 0.0010815250862 0.10910351518 0.11305089921 0.091304848577 0.065938908501 0.041203292769 0.016936964442 
0.0010815275743 0.0010204529207 0.00092679229429 0.004521501367 0.0035652262667 0.0036686138948 0.0036686171563 0.021228320809 0.0451930423 
0.069660511258 0.094842420401 0.1091803732 0.0010815244886 0.0098636577193 0.0088056021983 0.0088330701166 0.0088330667209 0.033040281921 
0.057615179355 0.082737725881 0.10381777326 0.10911852914 0.10914109676 0.10919097966 0.081390640816 0.10095216635 0.10687499488 
0.056123476928 0.031281409615 0.0079235848782 0.0007966484107 0.00086572393435 0.00092679161016 0.1078035618 0.10780407171 0.10780407883 
0.087833868475 0.062265795777 0.037109943179 0.013288379299 0.0072039102828 0.00097773346995 0.0010815322093 0.0010815251208 0.015918131404 
0.0087349351978 0.039542882019 0.064544243604 0.089947591481 0.1076857518 0.11298367719 0.0070508119867 0.0072039071092 0.0072039047671 
0.028782595866 0.053778893926 0.079241599543 0.10697165622 0.11289836471 0.11297811532 0.078439265384 0.1017295664 0.10698755111 
0.10698754959 0.052982150561 0.027995551364 0.006330063823 0.0062798848083 0.0062798876466 0.0061279385599 0.10703861532 0.10714336763 
0.10714336955 0.086361543352 0.060718127612 0.035492557599 0.012512447819 0.006330067074 0.0063300659071 0.013415580554 0.0070260502076 
0.0070508078715 0.0070508132515 0.036322774307 0.061463453396 0.087017870229 0.10172956759 0.10780406034 0.10780406186 0.0061861822888 
0.006330061854 0.0063300683905 0.027140328639 0.052213568398 0.077761184098 0.10703861724 0.11296073971 0.1130041807 0.077761184098 
0.10380275356 0.10774626252 0.10776127578 0.10776127794 0.052213568398 0.027140328639 0.0063300683905 0.006330061854 0.0061861822888 
0.10701896964 0.10714337878 0.10714337736 0.087017870229 0.061463453396 0.036322774307 0.013440340295 0.0062798949614 0.0062798895813 
0.0063300644478 0.012512445449 0.0060727434967 0.0060727446635 0.035492557599 0.060718127612 0.086361543352 0.10095519856 0.10714336881 
0.0061279385599 0.0062798876466 0.0062798848083 0.006330063823 0.027995551364 0.052982150561 0.087833868475 0.10780407883 0.10780407171 
0.1078035618 0.079241599543 0.10707329216 0.10905685169 0.10918037654 0.10918037794 0.053778893926 0.028782595866 0.0072039047671 
0.0072039071092 0.0070508119867 0.1076857518 0.11298367719 0.089947591481 0.064544243604 0.039542882019 0.015961329878 0.0072039096527 
0.00097773346995 0.0010815322093 0.0010815251208 0.0010815275743 0.0010204529207 0.00092679229429 0.013237466275 0.0059225292058 0.037109943179 
0.062265795777 0.078439265384 0.10172907313 0.10714337246 0.0079942494027 0.0070460886846 0.0072039148669 0.0072039114632 0.031281409615 
0.065938908501 0.091304848577 0.10910351518 0.11305089921 0.082737725881 0.11114238541 0.11122643116 0.11122643079 0.057615179355 
0.033040281921 0.0098636577193 0.0088056021983 0.0088330701166 0.0088330667209 0.0010815244886 0.1091803732 0.094842420401 0.069660511258 
0.0451930423 0.021228320809 0.0046248933685 0.00095627681491 0.0010204537394 0.0010815286072 0.0044679077358 0.00079929209628 0.00095627448636 
0.00095627483747 0.016936964442 0.041203292769 0.056123476928 0.081390640816 0.10381776828 0.10776128373 0.1077768164 0.10780549066 
0.0010810618199 0.0010815227719 0.0010815250862 0.013361755085 0.037160710266 0.071981287959 0.096812367513 0.11118390956 0.111226427 
0.11122642467 0.08847113843 0.063794073757 0.039494870677 0.016082621511 0.003731578941 0.0037315782548 0.003693381495 0.11122642639 
0.10097503218 0.10277205342 0.077051864297 0.052993247638 0.029677565966 0.010779136429 0.0036025798597 0.0036705040624 0.0037315777662 
0.00017093098127 0.010784066975 0.023790153608 0.047526647273 0.061415565588 0.086375144431 0.10719137357 0.10918037271 0.10918036843 
0.0033612879392 0.0033564691678 0.0035040913425 0.003516928462 0.0037315758416 0.0037315791987 0.022114652065 0.045118489499 0.07993985559 
0.1035843335 0.11095325608 0.11104618152 0.095421035972 0.10277205185 0.071918154207 0.048352537518 0.0253847387 0.0072911469977 
0.0071942555632 0.0071317740714 0.0071162750222 0.00017093216258 0.10555320902 0.11297829853 0.1128953014 0.086411250556 0.06293038383 
0.040384823817 0.016060789692 0.0045820960905 0.0045820979824 0.0045614705289 0.00017092857771 0.044357990894 0.032999496636 0.056085996671 
0.0690301598 0.093337901329 0.1111423812 0.11298154575 0.00017092727361 0.011635992748 0.032932990131 0.066800183753 0.089857002396 
0.10901222636 0.11294782763 0.11299811431 0.10175186872 0.10568408362 0.10568407951 0.082003643007 0.059203694109 0.037158346346 
0.018687046704 0.0046220265277 6.0651375223e-05 0.0001098583469 0.0001709305524 0.10910738114 0.11301166087 0.093980080847 0.10133164037 
0.071886680542 0.050678420869 0.030530500102 0.013397049456 0.0035980050295 0.0035980035299 0.0037432436977 0.0036821695165 0.0035979992923 
0.0045820991366 0.0045820979173 0.0045613724519 0.0045613721443 0.004500298184 0.0044321610251 0.0045538867497 0.022857666226 0.057683672053 
0.055333092675 0.078507027266 0.1016342559 0.10571101793 0.0079796832363 0.0045821014876 0.0044102952627 0.025447242918 0.045976903362 
0.079225134895 0.10146611052 0.10901348619 0.10910317976 0.1130229102 0.11299534825 0.09748403797 0.10133921439 0.074885183188 
0.05290804018 0.032140743597 0.014227727539 0.0045244787878 0.004582098415 0.0037432436977 0.0037432409135 0.0036393318362 0.10312292257 
0.10565410748 0.086287776621 0.065982211944 0.046744108399 0.028782845978 0.014286678352 0.0097160853536 0.0096742913896 0.004518433508 
0.0045613747712 0.0045613721443 0.004500298184 0.0043967077834 0.00017092894885 0.0036393318362 0.0037432409135 0.0037432409135 0.0036821695165 
0.0035979992923 0.017805419377 0.037139722304 0.072718859179 0.067546719793 0.089874119777 0.00017093185667 0.10903223163 0.11292407991 
0.11299535923 0.11299535805 0.0045538856851 0.004493233229 0.0045613732857 0.0045613735933 0.0045820978644 0.0045820959725 0.017805423261 
0.034697414133 0.041212589697 0.060756718255 0.093415798566 0.1101969272 0.11275101319 0.11296453565 0.10571977307 0.10572935616 
0.10572934966 0.088539033308 0.067493373685 0.047486864844 0.028782845978 0.013397039872 0.0035979969748 0.0045614705289 0.0045820979173 
0.0045820991366 0.00017093126155 0.11045561237 0.11303672416 0.099611138291 0.10356190436 0.10361854858 0.082740525797 0.064486079895 
0.047486864742 0.032140741182 0.018687046988 0.010778947218 0.0071942517038 0.0071317705372 0.0070103084027 0.0045215017213 0.0036686202216 
0.0036686182142 0.0036075484102 0.0035041599328 0.0001709303066 0.0010815237993 0.0010204517973 0.00092679229429 0.0079378851251 0.0035980035299 
0.0035980033853 0.0035571431607 0.022963986862 0.053023457018 0.077084103407 0.00097773346995 0.0010815295529 0.001081524771 0.081375716455 
0.0044679072454 0.0010199951413 0.000956276632 0.00089520106403 0.00073821122287 0.1028395121 0.10572935416 0.1057293487 0.010784067437 
0.022857666226 0.037139715323 0.053023457018 0.070514682691 0.089246385673 0.10628505873 0.11041083362 0.11047412038 0.11053087556 
0.11053087366 0.10103061723 0.11047411798 0.11047412129 0.083508840731 0.064486079895 0.046744107869 0.030530502773 0.016060791144 
0.0071991854201 4.8197314482e-06 0.0001098550514 0.000170928798 0.0037315793566 0.0036933805753 0.10911213249 0.11301000105 0.11297224219 
0.0010815299058 0.098879427055 0.10290309322 0.10290309322 0.083508840731 0.06749337125 0.05290804018 0.040384820533 0.0010815286072 
0.0010810684512 0.029677565902 0.0037315777662 0.0036705040624 0.0035040911422 0.0034430170399 0.0032953919698 0.0033612850853 0.021228318449 
0.011635992602 0.015918132834 0.008743122562 0.0086999240632 0.025447243293 0.013415574506 0.0070508083508 0.0070260486744 0.041212590978 
0.012512448005 0.0060727395633 0.058457477099 0.013237466275 0.005922529356 0.10911213253 0.11297225172 0.11297224713 0.016936960705 
0.096904845171 0.023790155566 0.11053086671 0.11049526635 0.11047412478 0.032999496809 0.044357987746 0.057683668728 0.072718864189 
0.089246388772 0.10501418784 0.10903811143 0.10906547665 0.10920543687 0.098879427055 0.10290308719 0.082740525797 0.06598221042 
0.050678419505 0.037158355963 0.0253847387 0.016082614835 0.0097537640669 0.00089994646653 0.00092679485219 0.10920544158 0.10920544025 
0.0070508078864 0.0071414314506 0.0072039133187 0.10103062412 0.10361855309 0.0061236965289 0.0062675780457 0.0063300593707 0.0063300659071 
0.088539032755 0.0060654540069 0.006217406409 0.0062798924196 0.0062798895813 0.0063300644478 0.074885180629 0.0079235830982 0.00092679158599 
0.00092679826291 0.00085772467937 0.06293038383 0.013361755551 0.052993247638 0.022114648425 0.045193042469 0.032932990131 0.039542876116 
0.045976909831 0.036322784464 0.060756722847 0.035492563115 0.077084103348 0.037109937861 0.094855252064 0.04120329006 0.04752664718 
0.056085996464 0.066800183138 0.079225135277 0.093415799051 0.10634834286 0.10893798792 0.10910445717 0.10920543749 0.10911213135 
0.11298710744 0.099611137731 0.10355526567 0.11302973374 0.086287776621 0.071886680542 0.059203694358 0.048352537376 0.039494870677 
0.033040283684 0.028782596908 0.11053087109 0.027140328639 0.10570124294 0.11303775679 0.11303776333 0.027995551364 0.097484036882 
0.10133921439 0.031281410865 0.086411250745 0.037160710032 0.077051863467 0.045118488925 0.069660511258 0.055333092622 0.064544250337 
0.067546726004 0.061463448383 0.081375716455 0.060718122618 0.096904844552 0.06226580803 0.10911213383 0.11301000105 0.11297224354 
0.065938908501 0.071981289266 0.079939855604 0.089857002396 0.10147352669 0.10572934488 0.11053087162 0.11042989181 0.11016492514 
0.11053909507 0.11049526635 0.11047412478 0.10312292163 0.10567035762 0.10565410212 0.093980081877 0.10133164037 0.082003643007 
0.071918153579 0.063794072159 0.057615180002 0.053778893926 0.052213568398 0.052982150561 0.10915709659 0.10917381148 0.10917348659 
0.056123475685 0.10571101924 0.10569443626 0.10568407927 0.061415565588 0.10097503185 0.10278477665 0.10277205045 0.069030162725 
0.094842423299 0.078507027101 0.089947587116 0.089874119933 0.087017870229 0.10282905699 0.11014590934 0.086361544257 0.11047966737 
0.11053088694 0.11053087366 0.087833864157 0.091304850771 0.096812367513 0.10358433579 0.1057110211 0.10901222619 0.11294782828 
0.11296451488 0.11284803072 0.1091031814 0.1129953565 0.10175186935 0.10568408422 0.095421034601 0.10277204978 0.088471138294 
0.082737725881 0.079241598424 0.077761186349 0.078439266693 0.081390640816 0.086375143563 0.11122642637 0.093337901329 0.10918036843 
0.10918037256 0.10154422906 0.10880460911 0.10768576025 0.11301484384 0.11298123257 0.10903223194 0.11292407872 0.11299470271 
0.11299470389 0.10714337012 0.10705877142 0.10698999554 0.10714336825 0.10704238293 0.10695033093 0.10780406186 0.10780406324 
0.10780355801 0.10910351615 0.11306048506 0.11305089492 0.11117909429 0.11303051391 0.11114238502 0.11298204121 0.10719137379 
0.1110849074 0.111226427 0.11122642467 0.10380274887 0.10774626211 0.11305089893 0.10172958496 0.10698756952 0.10095216516 
0.10687499483 0.10172907073 0.10714338112 0.10714337736 0.10373340633 0.10903417003 0.11299213638 0.10719137256 0.1091803781 
0.10918037381 0.11114238541 0.11122643116 0.11122642698 0.14995749473 0.14995749474 0.14995749474 0.14995749474 0.14995749473 
0.14995749473 0.14995749473 0.14995749473 0.14995749473 0.14995749473 0.14995749473 0.14995749473 0.14995749474 0.14995749473 
0.14995749473 0.14995749473 0.14995749473 0.14995749473 0.14995749473 0.14995749473 0.14995749473 0.14995749474 0.14995749474 
0.14995749474 0.14995749473 0.14995749473 0.14995749474 0.14995749474 0.14995749474 0.14995749473 0.14995749473 0.14995749473 