# vtk DataFile Version 5.0
vtk output
ASCII
DATASET POLYDATA
POINTS 48 float
40.1279 -10.7488 28.7013 41.5746 0 28.7013 40.1279 10.7488 28.7013 
35.9752 20.7742 28.7013 30.6992 17.7275 27.2708 34.2429 9.17237 27.2708 
25.0863 25.0863 27.2708 29.3977 29.3977 28.7013 20.7742 35.9752 28.7013 
9.17237 34.2429 27.2708 17.7275 30.6992 27.2708 0 35.4774 27.2708 
0 41.5746 28.7013 -10.7488 40.1279 28.7013 -20.7742 35.9752 28.7013 
-25.0863 25.0863 27.2708 -17.7275 30.6992 27.2708 -29.3977 29.3977 28.7013 
-35.9752 20.7742 28.7013 -34.2429 9.17237 27.2708 -30.6992 17.7275 27.2708 
29.3977 -29.3977 28.7013 35.9752 -20.7742 28.7013 -41.5746 0 28.7013 
-40.1279 -10.7488 28.7013 -35.9752 -20.7742 28.7013 -9.17237 -34.2429 27.2708 
-17.7275 -30.6992 27.2708 -29.3977 -29.3977 28.7013 -20.7742 -35.9752 28.7013 
25.0863 -25.0863 27.2708 17.7275 -30.6992 27.2708 -0 -35.4774 27.2708 
-0 -41.5746 28.7013 10.7488 -40.1279 28.7013 20.7742 -35.9752 28.7013 
-35.4774 0 27.2708 -25.0863 -25.0863 27.2708 -30.6992 -17.7275 27.2708 
30.6992 -17.7275 27.2708 35.4774 0 27.2708 10.7488 40.1279 28.7013 
-9.17237 34.2429 27.2708 -40.1279 10.7488 28.7013 -34.2429 -9.17237 27.2708 
-10.7488 -40.1279 28.7013 9.17237 -34.2429 27.2708 34.2429 -9.17237 27.2708 

METADATA
INFORMATION 2
NAME L2_NORM_RANGE LOCATION vtkDataArray
DATA 2 44.7259 50.5194 
NAME L2_NORM_FINITE_RANGE LOCATION vtkDataArray
DATA 2 44.7259 50.5194 

LINES 49 96
OFFSETS vtktypeint64
0 2 4 6 8 10 12 14 16 
18 20 22 24 26 28 30 32 34 
36 38 40 42 44 46 48 50 52 
54 56 58 60 62 64 66 68 70 
72 74 76 78 80 82 84 86 88 
90 92 94 96 
CONNECTIVITY vtktypeint64
0 1 2 3 4 5 6 4 7 
8 9 10 11 9 12 13 13 14 
15 16 17 18 19 20 1 2 21 
22 23 24 24 25 26 27 28 29 
30 31 32 26 33 34 34 35 36 
19 37 38 39 30 5 40 3 7 
10 6 8 41 41 12 42 11 16 
42 14 17 20 15 18 43 43 23 
44 36 38 44 25 28 27 37 29 
45 45 33 46 32 31 46 35 21 
47 39 22 0 40 47 
CELL_DATA 48
FIELD FieldData 1
vtkOriginalCellIds 1 48 vtkIdType
0 1 2 3 4 5 6 7 8 
9 10 11 12 13 14 15 16 17 
18 19 20 21 22 23 24 25 26 
28 30 32 34 36 38 40 42 44 
46 48 50 52 54 56 58 60 62 
64 66 68 
POINT_DATA 48
FIELD FieldData 1
vtkOriginalPointIds 1 48 vtkIdType
23 1 0 2 26 24 27 3 4 
29 28 30 6 7 8 33 32 9 
10 35 34 21 22 12 13 14 41 
40 15 16 45 44 42 18 19 20 
36 39 38 46 25 5 31 11 37 
17 43 47 
