# vtk DataFile Version 5.0
vtk output
ASCII
DATASET POLYDATA
POINTS 24 float
40.1279 -10.7488 28.7013 41.5746 0 28.7013 40.1279 10.7488 28.7013 
35.9752 20.7742 28.7013 29.3977 29.3977 28.7013 20.7742 35.9752 28.7013 
0 41.5746 28.7013 -10.7488 40.1279 28.7013 -20.7742 35.9752 28.7013 
-29.3977 29.3977 28.7013 -35.9752 20.7742 28.7013 29.3977 -29.3977 28.7013 
35.9752 -20.7742 28.7013 -41.5746 0 28.7013 -40.1279 -10.7488 28.7013 
-35.9752 -20.7742 28.7013 -29.3977 -29.3977 28.7013 -20.7742 -35.9752 28.7013 
-0 -41.5746 28.7013 10.7488 -40.1279 28.7013 20.7742 -35.9752 28.7013 
10.7488 40.1279 28.7013 -40.1279 10.7488 28.7013 -10.7488 -40.1279 28.7013 

METADATA
INFORMATION 2
NAME L2_NORM_RANGE LOCATION vtkDataArray
DATA 2 50.493 50.5194 
NAME L2_NORM_FINITE_RANGE LOCATION vtkDataArray
DATA 2 50.493 50.5194 

LINES 25 48
OFFSETS vtktypeint64
0 2 4 6 8 10 12 14 16 
18 20 22 24 26 28 30 32 34 
36 38 40 42 44 46 48 
CONNECTIVITY vtktypeint64
0 1 2 3 4 5 6 7 7 
8 9 10 1 2 11 12 13 14 
14 15 16 17 18 19 19 20 3 
4 5 21 21 6 8 9 10 22 
22 13 15 16 17 23 23 18 20 
11 12 0 
CELL_DATA 24
FIELD FieldData 1
vtkOriginalCellIds 1 24 vtkIdType
0 1 4 7 8 10 12 13 14 
15 17 20 21 26 28 29 32 34 
35 38 40 41 44 46 
POINT_DATA 24
FIELD FieldData 1
vtkOriginalPointIds 1 24 vtkIdType
0 1 2 3 7 8 12 13 14 
17 18 21 22 23 24 25 28 29 
33 34 35 41 43 45 
