# vtk DataFile Version 5.0
vtk output
ASCII
DATASET POLYDATA
POINTS 48 float
-22.6701 0 23.5347 -30.0376 0 24.7692 -28.9924 -7.76601 24.7692 
21.8812 5.86114 23.5347 28.9924 7.76601 24.7692 25.9921 15.0094 24.7692 
22.6701 0 23.5347 28.9924 -7.76601 24.7692 30.0376 0 24.7692 
16.0301 -16.0301 23.5347 21.2398 -21.2398 24.7692 25.9921 -15.0094 24.7692 
16.0301 16.0301 23.5347 21.2398 21.2398 24.7692 15.0094 25.9921 24.7692 
19.6168 11.3279 23.5347 0 22.6701 23.5347 5.86114 21.8812 23.5347 
7.76601 28.9924 24.7692 0 30.0376 24.7692 -7.76601 28.9924 24.7692 
-16.0301 16.0301 23.5347 -21.2398 21.2398 24.7692 -25.9921 15.0094 24.7692 
-21.8812 5.86114 23.5347 -28.9924 7.76601 24.7692 -16.0301 -16.0301 23.5347 
-25.9921 -15.0094 24.7692 -21.2398 -21.2398 24.7692 15.0094 -25.9921 24.7692 
0 -22.6701 23.5347 -7.76601 -28.9924 24.7692 0 -30.0376 24.7692 
-15.0094 -25.9921 24.7692 -5.86114 -21.8812 23.5347 -15.0094 25.9921 24.7692 
5.86114 -21.8812 23.5347 7.76601 -28.9924 24.7692 19.6168 -11.3279 23.5347 
11.3279 19.6168 23.5347 -5.86114 21.8812 23.5347 -11.3279 19.6168 23.5347 
-19.6168 11.3279 23.5347 -11.3279 -19.6168 23.5347 21.8812 -5.86114 23.5347 
11.3279 -19.6168 23.5347 -21.8812 -5.86114 23.5347 -19.6168 -11.3279 23.5347 

METADATA
INFORMATION 2
NAME L2_NORM_RANGE LOCATION vtkDataArray
DATA 2 32.6653 38.9329 
NAME L2_NORM_FINITE_RANGE LOCATION vtkDataArray
DATA 2 32.6653 38.9329 

POLYGONS 49 144
OFFSETS vtktypeint64
0 3 6 9 12 15 18 21 24 
27 30 33 36 39 42 45 48 51 
54 57 60 63 66 69 72 75 78 
81 84 87 90 93 96 99 102 105 
108 111 114 117 120 123 126 129 132 
135 138 141 144 
CONNECTIVITY vtktypeint64
0 1 2 3 4 5 6 7 8 
6 8 4 9 10 11 12 13 14 
12 15 5 12 5 13 16 17 18 
16 19 20 21 22 23 24 23 25 
0 24 25 26 27 28 9 29 10 
30 31 32 26 28 33 34 33 31 
21 35 22 36 37 29 38 9 11 
3 5 15 17 14 18 16 18 19 
39 12 14 39 14 17 40 20 35 
41 35 21 0 25 1 42 21 23 
42 23 24 30 34 31 43 33 34 
44 38 11 45 29 9 30 32 37 
36 30 37 26 33 43 46 2 27 
47 27 26 6 4 3 40 16 20 
40 35 41 46 0 2 46 27 47 
36 29 45 44 11 7 44 7 6 

CELL_DATA 48
FIELD FieldData 1
vtkOriginalCellIds 1 48 vtkIdType
0 1 2 3 4 5 6 7 9 
10 11 14 15 17 18 19 20 21 
22 23 24 25 26 28 30 31 36 
37 38 40 41 42 45 46 49 50 
51 54 56 57 60 62 63 64 65 
66 68 69 
POINT_DATA 48
FIELD FieldData 1
vtkOriginalPointIds 1 48 vtkIdType
39 13 14 25 2 3 43 0 1 
36 11 12 26 4 5 24 29 27 
21 6 7 30 9 10 32 22 40 
15 16 20 38 23 18 17 34 8 
46 19 42 28 44 31 33 35 47 
37 45 41 
