# vtk DataFile Version 5.0
vtk output
ASCII
DATASET POLYDATA
POINTS 24 float
30.6992 17.7275 27.2708 34.2429 9.17237 27.2708 25.0863 25.0863 27.2708 
9.17237 34.2429 27.2708 17.7275 30.6992 27.2708 0 35.4774 27.2708 
-25.0863 25.0863 27.2708 -17.7275 30.6992 27.2708 -34.2429 9.17237 27.2708 
-30.6992 17.7275 27.2708 -9.17237 -34.2429 27.2708 -17.7275 -30.6992 27.2708 
25.0863 -25.0863 27.2708 17.7275 -30.6992 27.2708 -0 -35.4774 27.2708 
-35.4774 0 27.2708 -25.0863 -25.0863 27.2708 -30.6992 -17.7275 27.2708 
30.6992 -17.7275 27.2708 35.4774 0 27.2708 -9.17237 34.2429 27.2708 
-34.2429 -9.17237 27.2708 9.17237 -34.2429 27.2708 34.2429 -9.17237 27.2708 

METADATA
INFORMATION 2
NAME L2_NORM_RANGE LOCATION vtkDataArray
DATA 2 44.7259 44.7475 
NAME L2_NORM_FINITE_RANGE LOCATION vtkDataArray
DATA 2 44.7259 44.7475 

LINES 25 48
OFFSETS vtktypeint64
0 2 4 6 8 10 12 14 16 
18 20 22 24 26 28 30 32 34 
36 38 40 42 44 46 48 
CONNECTIVITY vtktypeint64
0 1 2 0 3 4 5 3 6 
7 8 9 10 11 12 13 14 10 
15 8 16 17 18 12 1 19 4 
2 20 5 7 20 9 6 21 15 
17 21 11 16 22 14 13 22 23 
18 19 23 
CELL_DATA 24
FIELD FieldData 1
vtkOriginalCellIds 1 24 vtkIdType
2 3 5 6 9 11 16 18 19 
22 23 24 25 27 30 31 33 36 
37 39 42 43 45 47 
POINT_DATA 24
FIELD FieldData 1
vtkOriginalPointIds 1 24 vtkIdType
4 5 6 9 10 11 15 16 19 
20 26 27 30 31 32 36 37 38 
39 40 42 44 46 47 
