# vtk DataFile Version 5.0
vtk output
ASCII
DATASET POLYDATA
POINTS 541 float
-24.4851 0 4.02223 -23.4277 -6.2754 9.02379 -24.2723 0 9.02379 
0 0 -61.4992 3.42741 0.918077 -60.6774 2.51092 2.51092 -60.6774 
5.75475 1.54148 -59.6562 5.96222 0 -59.6562 5.15922 2.97923 -59.6562 
4.21592 4.21592 -59.6562 7.61292 2.03922 -58.2351 7.88737 0 -58.2351 
6.82509 3.94121 -58.2351 5.57722 5.57722 -58.2351 9.4202 2.52332 -56.4248 
9.75983 0 -56.4248 8.44534 4.87684 -56.4248 6.90126 6.90126 -56.4248 
11.1645 2.99057 -54.2375 11.5671 0 -54.2375 10.0092 5.7799 -54.2375 
8.17914 8.17914 -54.2375 12.8341 3.43777 -51.6865 13.2968 0 -51.6865 
11.5059 6.64419 -51.6865 9.40225 9.40225 -51.6865 14.4178 3.86199 -48.7902 
14.9376 0 -48.7902 12.9258 7.46409 -48.7902 10.5625 10.5625 -48.7902 
15.9052 4.26041 -45.568 16.4787 0 -45.568 14.2593 8.23415 -45.568 
11.6522 11.6522 -45.568 17.286 4.63026 -42.0401 17.9092 0 -42.0401 
15.4972 8.94894 -42.0401 12.6637 12.6637 -42.0401 18.5513 4.96918 -38.2313 
19.22 0 -38.2313 16.6314 9.60398 -38.2313 13.5906 13.5906 -38.2313 
19.6926 5.27489 -34.1671 20.4025 0 -34.1671 17.6547 10.1948 -34.1671 
14.4268 14.4268 -34.1671 20.7018 5.54524 -29.8739 21.4482 0 -29.8739 
18.5595 10.7173 -29.8739 15.1662 15.1662 -29.8739 21.5728 5.77853 -25.3809 
22.3505 0 -25.3809 19.3403 11.1682 -25.3809 15.8042 15.8042 -25.3809 
22.2996 5.97321 -20.7185 23.1035 0 -20.7185 19.9919 11.5445 -20.7185 
16.3367 16.3367 -20.7185 22.8768 6.12784 -15.9171 23.7016 0 -15.9171 
20.5094 11.8434 -15.9171 16.7596 16.7596 -15.9171 23.3013 6.24153 -11.0093 
24.1413 0 -11.0093 20.8899 12.063 -11.0093 17.0705 17.0705 -11.0093 
23.57 6.31351 -6.02798 24.4197 0 -6.02798 21.1308 12.2022 -6.02798 
17.2674 17.2674 -6.02798 23.6807 6.34317 -1.00624 24.5344 0 -1.00624 
21.2301 12.2595 -1.00624 17.3485 17.3485 -1.00624 23.6332 6.33043 4.02223 
24.4851 0 4.02223 21.1875 12.2349 4.02223 17.3136 17.3136 4.02223 
23.4277 6.2754 9.02379 24.2723 0 9.02379 21.0032 12.1285 9.02379 
17.1631 17.1631 9.02379 23.0652 6.17829 13.9649 23.8967 0 13.9649 
20.6782 11.9408 13.9649 16.8975 16.8975 13.9649 22.5485 6.0399 18.8127 
23.3615 0 18.8127 20.2151 11.6734 18.8127 16.519 16.519 18.8127 
21.8812 5.86114 23.5347 22.6701 0 23.5347 19.6168 11.3279 23.5347 
16.0301 16.0301 23.5347 0.918077 3.42741 -60.6774 2.97923 5.15922 -59.6562 
1.54148 5.75475 -59.6562 0 5.96222 -59.6562 3.94121 6.82509 -58.2351 
2.03922 7.61292 -58.2351 0 7.88737 -58.2351 4.87684 8.44534 -56.4248 
2.52332 9.4202 -56.4248 0 9.75983 -56.4248 5.7799 10.0092 -54.2375 
2.99057 11.1645 -54.2375 0 11.5671 -54.2375 6.64419 11.5059 -51.6865 
3.43777 12.8341 -51.6865 0 13.2968 -51.6865 7.46409 12.9258 -48.7902 
3.86199 14.4178 -48.7902 0 14.9376 -48.7902 8.23415 14.2593 -45.568 
4.26041 15.9052 -45.568 0 16.4787 -45.568 8.94894 15.4972 -42.0401 
4.63026 17.286 -42.0401 0 17.9092 -42.0401 9.60398 16.6314 -38.2313 
4.96918 18.5513 -38.2313 0 19.22 -38.2313 10.1948 17.6547 -34.1671 
5.27489 19.6926 -34.1671 0 20.4025 -34.1671 10.7173 18.5595 -29.8739 
5.54524 20.7018 -29.8739 0 21.4482 -29.8739 11.1682 19.3403 -25.3809 
5.77853 21.5728 -25.3809 0 22.3505 -25.3809 11.5445 19.9919 -20.7185 
5.97321 22.2996 -20.7185 0 23.1035 -20.7185 11.8434 20.5094 -15.9171 
6.12784 22.8768 -15.9171 0 23.7016 -15.9171 12.063 20.8899 -11.0093 
6.24153 23.3013 -11.0093 0 24.1413 -11.0093 12.2022 21.1308 -6.02798 
6.31351 23.57 -6.02798 0 24.4197 -6.02798 12.2595 21.2301 -1.00624 
6.34317 23.6807 -1.00624 0 24.5344 -1.00624 12.2349 21.1875 4.02223 
6.33043 23.6332 4.02223 0 24.4851 4.02223 12.1285 21.0032 9.02379 
6.2754 23.4277 9.02379 0 24.2723 9.02379 11.9408 20.6782 13.9649 
6.17829 23.0652 13.9649 0 23.8967 13.9649 11.6734 20.2151 18.8127 
6.0399 22.5485 18.8127 0 23.3615 18.8127 11.3279 19.6168 23.5347 
5.86114 21.8812 23.5347 0 22.6701 23.5347 -0.918077 3.42741 -60.6774 
-2.51092 2.51092 -60.6774 -1.54148 5.75475 -59.6562 -2.97923 5.15922 -59.6562 
-4.21592 4.21592 -59.6562 -2.03922 7.61292 -58.2351 -3.94121 6.82509 -58.2351 
-5.57722 5.57722 -58.2351 -2.52332 9.4202 -56.4248 -4.87684 8.44534 -56.4248 
-6.90126 6.90126 -56.4248 -2.99057 11.1645 -54.2375 -5.7799 10.0092 -54.2375 
-8.17914 8.17914 -54.2375 -3.43777 12.8341 -51.6865 -6.64419 11.5059 -51.6865 
-9.40225 9.40225 -51.6865 -3.86199 14.4178 -48.7902 -7.46409 12.9258 -48.7902 
-10.5625 10.5625 -48.7902 -4.26041 15.9052 -45.568 -8.23415 14.2593 -45.568 
-11.6522 11.6522 -45.568 -4.63026 17.286 -42.0401 -8.94894 15.4972 -42.0401 
-12.6637 12.6637 -42.0401 -4.96918 18.5513 -38.2313 -9.60398 16.6314 -38.2313 
-13.5906 13.5906 -38.2313 -5.27489 19.6926 -34.1671 -10.1948 17.6547 -34.1671 
-14.4268 14.4268 -34.1671 -5.54524 20.7018 -29.8739 -10.7173 18.5595 -29.8739 
-15.1662 15.1662 -29.8739 -5.77853 21.5728 -25.3809 -11.1682 19.3403 -25.3809 
-15.8042 15.8042 -25.3809 -5.97321 22.2996 -20.7185 -11.5445 19.9919 -20.7185 
-16.3367 16.3367 -20.7185 -6.12784 22.8768 -15.9171 -11.8434 20.5094 -15.9171 
-16.7596 16.7596 -15.9171 -6.24153 23.3013 -11.0093 -12.063 20.8899 -11.0093 
-17.0705 17.0705 -11.0093 -6.31351 23.57 -6.02798 -12.2022 21.1308 -6.02798 
-17.2674 17.2674 -6.02798 -6.34317 23.6807 -1.00624 -12.2595 21.2301 -1.00624 
-17.3485 17.3485 -1.00624 -6.33043 23.6332 4.02223 -12.2349 21.1875 4.02223 
-17.3136 17.3136 4.02223 -6.2754 23.4277 9.02379 -12.1285 21.0032 9.02379 
-17.1631 17.1631 9.02379 -6.17829 23.0652 13.9649 -11.9408 20.6782 13.9649 
-16.8975 16.8975 13.9649 -6.0399 22.5485 18.8127 -11.6734 20.2151 18.8127 
-16.519 16.519 18.8127 -5.86114 21.8812 23.5347 -11.3279 19.6168 23.5347 
-16.0301 16.0301 23.5347 -3.42741 0.918077 -60.6774 -5.15922 2.97923 -59.6562 
-5.75475 1.54148 -59.6562 -5.96222 0 -59.6562 -6.82509 3.94121 -58.2351 
-7.61292 2.03922 -58.2351 -7.88737 0 -58.2351 -8.44534 4.87684 -56.4248 
-9.4202 2.52332 -56.4248 -9.75983 0 -56.4248 -10.0092 5.7799 -54.2375 
-11.1645 2.99057 -54.2375 -11.5671 0 -54.2375 -11.5059 6.64419 -51.6865 
-12.8341 3.43777 -51.6865 -13.2968 0 -51.6865 -12.9258 7.46409 -48.7902 
-14.4178 3.86199 -48.7902 -14.9376 0 -48.7902 -14.2593 8.23415 -45.568 
-15.9052 4.26041 -45.568 -16.4787 0 -45.568 -15.4972 8.94894 -42.0401 
-17.286 4.63026 -42.0401 -17.9092 0 -42.0401 -16.6314 9.60398 -38.2313 
-18.5513 4.96918 -38.2313 -19.22 0 -38.2313 -17.6547 10.1948 -34.1671 
-19.6926 5.27489 -34.1671 -20.4025 0 -34.1671 -18.5595 10.7173 -29.8739 
-20.7018 5.54524 -29.8739 -21.4482 0 -29.8739 -19.3403 11.1682 -25.3809 
-21.5728 5.77853 -25.3809 -22.3505 0 -25.3809 -19.9919 11.5445 -20.7185 
-22.2996 5.97321 -20.7185 -23.1035 0 -20.7185 -20.5094 11.8434 -15.9171 
-22.8768 6.12784 -15.9171 -23.7016 0 -15.9171 -20.8899 12.063 -11.0093 
-23.3013 6.24153 -11.0093 -24.1413 0 -11.0093 -21.1308 12.2022 -6.02798 
-23.57 6.31351 -6.02798 -24.4197 0 -6.02798 -21.2301 12.2595 -1.00624 
-23.6807 6.34317 -1.00624 -24.5344 0 -1.00624 -21.1875 12.2349 4.02223 
-23.6332 6.33043 4.02223 -21.0032 12.1285 9.02379 -23.4277 6.2754 9.02379 
-20.6782 11.9408 13.9649 -23.0652 6.17829 13.9649 -23.8967 0 13.9649 
-20.2151 11.6734 18.8127 -22.5485 6.0399 18.8127 -23.3615 0 18.8127 
-19.6168 11.3279 23.5347 -21.8812 5.86114 23.5347 -22.6701 0 23.5347 
-3.42741 -0.918077 -60.6774 -2.51092 -2.51092 -60.6774 -5.75475 -1.54148 -59.6562 
-5.15922 -2.97923 -59.6562 -4.21592 -4.21592 -59.6562 -7.61292 -2.03922 -58.2351 
-6.82509 -3.94121 -58.2351 -5.57722 -5.57722 -58.2351 -9.4202 -2.52332 -56.4248 
-8.44534 -4.87684 -56.4248 -6.90126 -6.90126 -56.4248 -11.1645 -2.99057 -54.2375 
-10.0092 -5.7799 -54.2375 -8.17914 -8.17914 -54.2375 -12.8341 -3.43777 -51.6865 
-11.5059 -6.64419 -51.6865 -9.40225 -9.40225 -51.6865 -14.4178 -3.86199 -48.7902 
-12.9258 -7.46409 -48.7902 -10.5625 -10.5625 -48.7902 -15.9052 -4.26041 -45.568 
-14.2593 -8.23415 -45.568 -11.6522 -11.6522 -45.568 -17.286 -4.63026 -42.0401 
-15.4972 -8.94894 -42.0401 -12.6637 -12.6637 -42.0401 -18.5513 -4.96918 -38.2313 
-16.6314 -9.60398 -38.2313 -13.5906 -13.5906 -38.2313 -19.6926 -5.27489 -34.1671 
-17.6547 -10.1948 -34.1671 -14.4268 -14.4268 -34.1671 -20.7018 -5.54524 -29.8739 
-18.5595 -10.7173 -29.8739 -15.1662 -15.1662 -29.8739 -21.5728 -5.77853 -25.3809 
-19.3403 -11.1682 -25.3809 -15.8042 -15.8042 -25.3809 -22.2996 -5.97321 -20.7185 
-19.9919 -11.5445 -20.7185 -16.3367 -16.3367 -20.7185 -22.8768 -6.12784 -15.9171 
-20.5094 -11.8434 -15.9171 -16.7596 -16.7596 -15.9171 -23.3013 -6.24153 -11.0093 
-20.8899 -12.063 -11.0093 -17.0705 -17.0705 -11.0093 -23.57 -6.31351 -6.02798 
-21.1308 -12.2022 -6.02798 -17.2674 -17.2674 -6.02798 -23.6807 -6.34317 -1.00624 
-21.2301 -12.2595 -1.00624 -17.3485 -17.3485 -1.00624 -23.6332 -6.33043 4.02223 
-21.1875 -12.2349 4.02223 -17.3136 -17.3136 4.02223 -21.0032 -12.1285 9.02379 
-17.1631 -17.1631 9.02379 -23.0652 -6.17829 13.9649 -20.6782 -11.9408 13.9649 
-16.8975 -16.8975 13.9649 -22.5485 -6.0399 18.8127 -20.2151 -11.6734 18.8127 
-16.519 -16.519 18.8127 -21.8812 -5.86114 23.5347 -19.6168 -11.3279 23.5347 
-16.0301 -16.0301 23.5347 -0.918077 -3.42741 -60.6774 -2.97923 -5.15922 -59.6562 
-1.54148 -5.75475 -59.6562 0 -5.96222 -59.6562 -3.94121 -6.82509 -58.2351 
-2.03922 -7.61292 -58.2351 0 -7.88737 -58.2351 -4.87684 -8.44534 -56.4248 
-2.52332 -9.4202 -56.4248 0 -9.75983 -56.4248 -5.7799 -10.0092 -54.2375 
-2.99057 -11.1645 -54.2375 0 -11.5671 -54.2375 -6.64419 -11.5059 -51.6865 
-3.43777 -12.8341 -51.6865 0 -13.2968 -51.6865 -7.46409 -12.9258 -48.7902 
-3.86199 -14.4178 -48.7902 0 -14.9376 -48.7902 -8.23415 -14.2593 -45.568 
-4.26041 -15.9052 -45.568 0 -16.4787 -45.568 -8.94894 -15.4972 -42.0401 
-4.63026 -17.286 -42.0401 0 -17.9092 -42.0401 -9.60398 -16.6314 -38.2313 
-4.96918 -18.5513 -38.2313 0 -19.22 -38.2313 -10.1948 -17.6547 -34.1671 
-5.27489 -19.6926 -34.1671 0 -20.4025 -34.1671 -10.7173 -18.5595 -29.8739 
-5.54524 -20.7018 -29.8739 0 -21.4482 -29.8739 -11.1682 -19.3403 -25.3809 
-5.77853 -21.5728 -25.3809 0 -22.3505 -25.3809 -11.5445 -19.9919 -20.7185 
-5.97321 -22.2996 -20.7185 0 -23.1035 -20.7185 -11.8434 -20.5094 -15.9171 
[...]
CELL_DATA 1128
FIELD FieldData 1
vtkOriginalCellIds 1 1128 vtkIdType
681 0 1 2 3 4 5 6 7 
8 9 10 11 12 13 14 30 31 
32 33 34 35 36 37 38 39 40 
41 42 43 44 45 46 47 66 67 
68 69 70 71 72 73 74 75 76 
77 78 79 80 81 82 83 102 103 
104 105 106 107 108 109 110 111 112 
113 114 115 116 117 118 119 138 139 
140 141 142 143 144 145 146 147 148 
149 150 151 152 153 154 155 174 175 
176 177 178 179 180 181 182 183 184 
185 186 187 188 189 190 191 210 211 
212 213 214 215 216 217 218 219 220 
221 222 223 224 225 226 227 246 247 
248 249 250 251 252 253 254 255 256 
257 258 259 260 261 262 263 300 301 
302 303 304 305 306 307 308 309 310 
311 312 313 314 330 331 332 333 334 
335 336 337 338 339 340 341 342 343 
344 345 346 347 366 367 368 369 370 
371 372 373 374 375 376 377 378 379 
380 381 382 383 402 403 404 405 406 
407 408 409 410 411 412 413 414 415 
416 417 418 419 438 439 440 441 442 
443 444 445 446 447 448 449 450 451 
452 453 454 455 474 475 476 477 478 
479 480 481 482 483 484 485 486 487 
488 489 490 491 510 511 512 513 514 
515 516 517 518 519 520 521 522 523 
524 525 526 527 546 547 548 549 550 
551 552 553 554 555 556 557 558 559 
560 561 562 563 600 601 602 603 604 
605 606 607 608 609 610 611 612 613 
614 630 631 632 633 634 635 636 637 
638 639 640 641 642 643 644 645 646 
647 666 667 668 669 670 671 672 673 
674 675 676 677 678 679 680 681 682 
683 702 703 704 705 706 707 708 709 
710 711 712 713 714 715 716 717 718 
719 738 739 740 741 742 743 744 745 
746 747 748 749 750 751 752 753 754 
755 774 775 776 777 778 779 780 781 
782 783 784 785 786 787 788 789 790 
791 810 811 812 813 814 815 816 817 
818 819 820 821 822 823 824 825 826 
827 846 847 848 849 850 851 852 853 
854 855 856 857 858 859 860 861 862 
863 900 901 902 903 904 905 906 907 
908 909 910 911 912 913 914 930 931 
932 933 934 935 936 937 938 939 940 
941 942 943 944 945 946 947 966 967 
968 969 970 971 972 973 974 975 976 
977 978 979 980 981 982 983 1002 1003 
1004 1005 1006 1007 1008 1009 1010 1011 1012 
1013 1014 1015 1016 1017 1018 1019 1038 1039 
1040 1041 1042 1043 1044 1045 1046 1047 1048 
1049 1050 1051 1052 1053 1054 1055 1074 1075 
1076 1077 1078 1079 1080 1081 1082 1083 1084 
1085 1086 1087 1088 1089 1090 1091 1110 1111 
1112 1113 1114 1115 1116 1117 1118 1119 1120 
1121 1122 1123 1124 1125 1126 1127 1146 1147 
1148 1149 1150 1151 1152 1153 1154 1155 1156 
1157 1158 1159 1160 1161 1162 1163 1200 1201 
1202 1203 1204 1205 1206 1207 1208 1209 1210 
1211 1212 1213 1214 1230 1231 1232 1233 1234 
1235 1236 1237 1238 1239 1240 1241 1242 1243 
1244 1245 1246 1247 1266 1267 1268 1269 1270 
1271 1272 1273 1274 1275 1276 1277 1278 1279 
1280 1281 1282 1283 1302 1303 1304 1305 1306 
1307 1308 1309 1310 1311 1312 1313 1314 1315 
1316 1317 1318 1319 1338 1339 1340 1341 1342 
1343 1344 1345 1346 1347 1348 1349 1350 1351 
1352 1353 1354 1355 1374 1375 1376 1377 1378 
1379 1380 1381 1382 1383 1384 1385 1386 1387 
1388 1389 1390 1391 1410 1411 1412 1413 1414 
1415 1416 1417 1418 1419 1420 1421 1423 1424 
1425 1426 1427 1446 1447 1448 1449 1450 1451 
1452 1453 1454 1455 1456 1457 1458 1459 1460 
1461 1462 1463 1500 1501 1502 1503 1504 1505 
1506 1507 1508 1509 1510 1511 1512 1513 1514 
1530 1531 1532 1533 1534 1535 1536 1537 1538 
1539 1540 1541 1542 1543 1544 1545 1546 1547 
1566 1567 1568 1569 1570 1571 1572 1573 1574 
1575 1576 1577 1578 1579 1580 1581 1582 1583 
1602 1603 1604 1605 1606 1607 1608 1609 1610 
1611 1612 1613 1614 1615 1616 1617 1618 1619 
1638 1639 1640 1641 1642 1643 1644 1645 1646 
1647 1648 1649 1650 1651 1652 1653 1654 1655 
1674 1675 1676 1677 1678 1679 1680 1681 1682 
1683 1684 1685 1686 1687 1688 1689 1690 1691 
1710 1711 1712 1713 1714 1715 1716 1717 1718 
1719 1720 1721 1722 1723 1724 1725 1726 1727 
1746 1747 1748 1749 1750 1751 1752 1753 1754 
1755 1756 1757 1758 1759 1760 1761 1762 1763 
1800 1801 1802 1803 1804 1805 1806 1807 1808 
1809 1810 1811 1812 1813 1814 1830 1831 1832 
1833 1834 1835 1836 1837 1838 1839 1840 1841 
1842 1843 1844 1845 1846 1847 1866 1867 1868 
1869 1870 1871 1872 1873 1874 1875 1876 1877 
1878 1879 1880 1881 1882 1883 1902 1903 1904 
1905 1906 1907 1908 1909 1910 1911 1912 1913 
1914 1915 1916 1917 1918 1919 1938 1939 1940 
1941 1942 1943 1944 1945 1946 1947 1948 1949 
1950 1951 1952 1953 1954 1955 1974 1975 1976 
1977 1978 1979 1980 1981 1982 1983 1984 1985 
1986 1987 1988 1989 1990 1991 2010 2011 2012 
2013 2014 2015 2016 2017 2018 2019 2020 2021 
2022 2023 2024 2025 2026 2027 2046 2047 2048 
2049 2050 2051 2052 2053 2054 2055 2056 2057 
2058 2059 2060 2061 2062 2063 2100 2101 2102 
2103 2104 2105 2106 2107 2108 2109 2110 2111 
2112 2113 2114 2130 2131 2132 2133 2134 2135 
2136 2137 2138 2139 2140 2141 2142 2143 2144 
2145 2146 2147 2166 2167 2168 2169 2170 2171 
2172 2173 2174 2175 2176 2177 2178 2179 2180 
2181 2182 2183 2202 2203 2204 2205 2206 2207 
2208 2209 2210 2211 2212 2213 2214 2215 2216 
2217 2218 2219 2238 2239 2240 2241 2242 2243 
2244 2245 2246 2247 2248 2249 2250 2251 2252 
2253 2254 2255 2274 2275 2276 2277 2278 2279 
2280 2281 2282 2283 2284 2285 2286 2287 2288 
2289 2290 2291 2310 2311 2312 2313 2314 2315 
2316 2317 2318 2319 2320 2321 2322 2323 2324 
2325 2326 2327 2346 2347 2348 2349 2350 2351 
2352 2353 2354 2355 2356 2357 2358 2359 2360 
2361 2362 2363 
POINT_DATA 541
FIELD FieldData 1
vtkOriginalPointIds 1 541 vtkIdType
300 373 303 0 5 8 9 10 11 
12 26 27 28 29 30 31 32 33 
34 35 36 37 50 51 52 53 54 
55 56 57 58 59 60 61 74 75 
76 77 78 79 80 81 82 83 84 
85 98 99 100 101 102 103 104 105 
106 107 108 109 122 123 124 125 126 
127 128 129 130 131 132 133 146 147 
148 149 150 151 152 153 154 155 156 
157 170 171 172 173 174 175 176 177 
178 179 180 181 206 208 209 210 220 
221 222 223 224 225 226 227 228 238 
239 240 241 242 243 244 245 246 256 
257 258 259 260 261 262 263 264 274 
275 276 277 278 279 280 281 282 292 
293 294 295 296 297 298 299 300 310 
311 312 313 314 315 316 317 318 328 
329 330 331 332 333 334 335 336 355 
357 358 359 360 370 371 372 373 374 
375 376 377 378 388 389 390 391 392 
393 394 395 396 406 407 408 409 410 
411 412 413 414 424 425 426 427 428 
429 430 431 432 442 443 444 445 446 
447 448 449 450 460 461 462 463 464 
465 466 467 468 478 479 480 481 482 
483 484 485 486 506 508 509 510 520 
521 522 523 524 525 526 527 528 538 
539 540 541 542 543 544 545 546 556 
557 558 559 560 561 562 563 564 574 
575 576 577 578 579 580 581 582 592 
593 594 595 596 597 598 599 600 610 
611 612 613 614 616 617 628 629 630 
631 632 633 634 635 636 655 657 658 
659 660 670 671 672 673 674 675 676 
677 678 688 689 690 691 692 693 694 
695 696 706 707 708 709 710 711 712 
713 714 724 725 726 727 728 729 730 
731 732 742 743 744 745 746 747 748 
749 750 760 761 762 763 764 765 767 
768 778 779 780 781 782 783 784 785 
786 806 808 809 810 820 821 822 823 
824 825 826 827 828 838 839 840 841 
842 843 844 845 846 856 857 858 859 
860 861 862 863 864 874 875 876 877 
878 879 880 881 882 892 893 894 895 
896 897 898 899 900 910 911 912 913 
914 915 916 917 918 928 929 930 931 
932 933 934 935 936 955 957 958 959 
960 970 971 972 973 974 975 976 977 
978 988 989 990 991 992 993 994 995 
996 1006 1007 1008 1009 1010 1011 1012 1013 
1014 1024 1025 1026 1027 1028 1029 1030 1031 
1032 1042 1043 1044 1045 1046 1047 1048 1049 
1050 1060 1061 1062 1063 1064 1065 1066 1067 
1068 1078 1079 1080 1081 1082 1083 1084 1085 
1086 1105 1106 1107 1114 1115 1116 1117 1118 
1119 1126 1127 1128 1129 1130 1131 1138 1139 
1140 1141 1142 1143 1150 1151 1152 1153 1154 
1155 1162 1163 1164 1165 1166 1167 1174 1175 
1176 1177 1178 1179 1186 1187 1188 1189 1190 
1191 
