# vtk DataFile Version 5.0
vtk output
ASCII
DATASET POLYDATA
POINTS 577 float
-38.3179 0 4.66075 -36.663 -9.82065 10.4563 -37.9848 0 10.4563 
0 0 -71.2621 1.6812 0.450331 -71.0232 1.74181 0 -71.0232 
1.50722 0.870358 -71.0232 1.23165 1.23165 -71.0232 5.36371 1.43674 -70.3098 
5.55708 0 -70.3098 4.80864 2.77679 -70.3098 3.92945 3.92945 -70.3098 
9.00587 2.41233 -69.1265 9.33055 0 -69.1265 8.07389 4.66233 -69.1265 
6.59769 6.59769 -69.1265 11.9138 3.19126 -67.4798 12.3433 0 -67.4798 
10.6809 6.16777 -67.4798 8.72804 8.72804 -67.4798 14.7421 3.94886 -65.3821 
15.2736 0 -65.3821 13.2165 7.63199 -65.3821 10.8001 10.8001 -65.3821 
17.4719 4.68008 -62.8476 18.1018 0 -62.8476 15.6638 9.04522 -62.8476 
12.7999 12.7999 -62.8476 20.0846 5.37992 -59.8917 20.8087 0 -59.8917 
18.0061 10.3978 -59.8917 14.714 14.714 -59.8917 22.5631 6.04381 -56.5356 
23.3765 0 -56.5356 20.2281 11.6809 -56.5356 16.5297 16.5297 -56.5356 
24.8908 6.66731 -52.8018 25.7882 0 -52.8018 22.315 12.886 -52.8018 
18.235 18.235 -52.8018 27.0516 7.24611 -48.7139 28.0269 0 -48.7139 
24.2522 14.0046 -48.7139 19.818 19.818 -48.7139 29.0317 7.7765 -44.3005 
30.0783 0 -44.3005 26.0273 15.0297 -44.3005 21.2686 21.2686 -44.3005 
30.8178 8.25492 -39.5911 31.9288 0 -39.5911 27.6286 15.9543 -39.5911 
22.5771 22.5771 -39.5911 32.3972 8.678 -34.6163 33.5652 0 -34.6163 
29.0446 16.772 -34.6163 23.7342 23.7342 -34.6163 33.7602 9.04309 -29.4101 
34.9773 0 -29.4101 30.2665 17.4776 -29.4101 24.7327 24.7327 -29.4101 
34.8976 9.34775 -24.0075 36.1557 0 -24.0075 31.2862 18.0665 -24.0075 
25.566 25.566 -24.0075 35.801 9.58974 -18.4439 37.0917 0 -18.4439 
32.0961 18.5342 -18.4439 26.2278 26.2278 -18.4439 36.4652 9.76766 -12.757 
37.7798 0 -12.757 32.6916 18.878 -12.757 26.7144 26.7144 -12.757 
36.8857 9.8803 -6.98491 38.2155 0 -6.98491 33.0686 19.0957 -6.98491 
27.0225 27.0225 -6.98491 37.059 9.92671 -1.16598 38.395 0 -1.16598 
33.2239 19.1854 -1.16598 27.1494 27.1494 -1.16598 36.9846 9.90678 4.66075 
38.3179 0 4.66075 33.1572 19.1469 4.66075 27.0949 27.0949 4.66075 
36.663 9.82065 10.4563 37.9848 0 10.4563 32.8689 18.9804 10.4563 
26.8593 26.8593 10.4563 36.0957 9.66868 16.1818 37.397 0 16.1818 
32.3603 18.6867 16.1818 26.4437 26.4437 16.1818 35.2872 9.45211 21.7992 
36.5594 0 21.7992 31.6355 18.2682 21.7992 25.8514 25.8514 21.7992 
34.2429 9.17237 27.2708 35.4774 0 27.2708 30.6992 17.7275 27.2708 
25.0863 25.0863 27.2708 0.870358 1.50722 -71.0232 0.450331 1.6812 -71.0232 
0 1.74181 -71.0232 2.77679 4.80864 -70.3098 1.43674 5.36371 -70.3098 
0 5.55708 -70.3098 4.66233 8.07389 -69.1265 2.41233 9.00587 -69.1265 
0 9.33055 -69.1265 6.16777 10.6809 -67.4798 3.19126 11.9138 -67.4798 
0 12.3433 -67.4798 7.63199 13.2165 -65.3821 3.94886 14.7421 -65.3821 
0 15.2736 -65.3821 9.04522 15.6638 -62.8476 4.68008 17.4719 -62.8476 
0 18.1018 -62.8476 10.3978 18.0061 -59.8917 5.37992 20.0846 -59.8917 
0 20.8087 -59.8917 11.6809 20.2281 -56.5356 6.04381 22.5631 -56.5356 
0 23.3765 -56.5356 12.886 22.315 -52.8018 6.66731 24.8908 -52.8018 
0 25.7882 -52.8018 14.0046 24.2522 -48.7139 7.24611 27.0516 -48.7139 
0 28.0269 -48.7139 15.0297 26.0273 -44.3005 7.7765 29.0317 -44.3005 
0 30.0783 -44.3005 15.9543 27.6286 -39.5911 8.25492 30.8178 -39.5911 
0 31.9288 -39.5911 16.772 29.0446 -34.6163 8.678 32.3972 -34.6163 
0 33.5652 -34.6163 17.4776 30.2665 -29.4101 9.04309 33.7602 -29.4101 
0 34.9773 -29.4101 18.0665 31.2862 -24.0075 9.34775 34.8976 -24.0075 
0 36.1557 -24.0075 18.5342 32.0961 -18.4439 9.58974 35.801 -18.4439 
0 37.0917 -18.4439 18.878 32.6916 -12.757 9.76766 36.4652 -12.757 
0 37.7798 -12.757 19.0957 33.0686 -6.98491 9.8803 36.8857 -6.98491 
0 38.2155 -6.98491 19.1854 33.2239 -1.16598 9.92671 37.059 -1.16598 
0 38.395 -1.16598 19.1469 33.1572 4.66075 9.90678 36.9846 4.66075 
0 38.3179 4.66075 18.9804 32.8689 10.4563 9.82065 36.663 10.4563 
0 37.9848 10.4563 18.6867 32.3603 16.1818 9.66868 36.0957 16.1818 
0 37.397 16.1818 18.2682 31.6355 21.7992 9.45211 35.2872 21.7992 
0 36.5594 21.7992 17.7275 30.6992 27.2708 9.17237 34.2429 27.2708 
0 35.4774 27.2708 -0.450331 1.6812 -71.0232 -0.870358 1.50722 -71.0232 
-1.23165 1.23165 -71.0232 -1.43674 5.36371 -70.3098 -2.77679 4.80864 -70.3098 
-3.92945 3.92945 -70.3098 -2.41233 9.00587 -69.1265 -4.66233 8.07389 -69.1265 
-6.59769 6.59769 -69.1265 -3.19126 11.9138 -67.4798 -6.16777 10.6809 -67.4798 
-8.72804 8.72804 -67.4798 -3.94886 14.7421 -65.3821 -7.63199 13.2165 -65.3821 
-10.8001 10.8001 -65.3821 -4.68008 17.4719 -62.8476 -9.04522 15.6638 -62.8476 
-12.7999 12.7999 -62.8476 -5.37992 20.0846 -59.8917 -10.3978 18.0061 -59.8917 
-14.714 14.714 -59.8917 -6.04381 22.5631 -56.5356 -11.6809 20.2281 -56.5356 
-16.5297 16.5297 -56.5356 -6.66731 24.8908 -52.8018 -12.886 22.315 -52.8018 
-18.235 18.235 -52.8018 -7.24611 27.0516 -48.7139 -14.0046 24.2522 -48.7139 
-19.818 19.818 -48.7139 -7.7765 29.0317 -44.3005 -15.0297 26.0273 -44.3005 
-21.2686 21.2686 -44.3005 -8.25492 30.8178 -39.5911 -15.9543 27.6286 -39.5911 
-22.5771 22.5771 -39.5911 -8.678 32.3972 -34.6163 -16.772 29.0446 -34.6163 
-23.7342 23.7342 -34.6163 -9.04309 33.7602 -29.4101 -17.4776 30.2665 -29.4101 
-24.7327 24.7327 -29.4101 -9.34775 34.8976 -24.0075 -18.0665 31.2862 -24.0075 
-25.566 25.566 -24.0075 -9.58974 35.801 -18.4439 -18.5342 32.0961 -18.4439 
-26.2278 26.2278 -18.4439 -9.76766 36.4652 -12.757 -18.878 32.6916 -12.757 
-26.7144 26.7144 -12.757 -9.8803 36.8857 -6.98491 -19.0957 33.0686 -6.98491 
-27.0225 27.0225 -6.98491 -9.92671 37.059 -1.16598 -19.1854 33.2239 -1.16598 
-27.1494 27.1494 -1.16598 -9.90678 36.9846 4.66075 -19.1469 33.1572 4.66075 
-27.0949 27.0949 4.66075 -9.82065 36.663 10.4563 -18.9804 32.8689 10.4563 
-26.8593 26.8593 10.4563 -9.66868 36.0957 16.1818 -18.6867 32.3603 16.1818 
-26.4437 26.4437 16.1818 -9.45211 35.2872 21.7992 -18.2682 31.6355 21.7992 
-25.8514 25.8514 21.7992 -9.17237 34.2429 27.2708 -17.7275 30.6992 27.2708 
-25.0863 25.0863 27.2708 -1.50722 0.870358 -71.0232 -1.6812 0.450331 -71.0232 
-1.74181 0 -71.0232 -4.80864 2.77679 -70.3098 -5.36371 1.43674 -70.3098 
-5.55708 0 -70.3098 -8.07389 4.66233 -69.1265 -9.00587 2.41233 -69.1265 
-9.33055 0 -69.1265 -10.6809 6.16777 -67.4798 -11.9138 3.19126 -67.4798 
-12.3433 0 -67.4798 -13.2165 7.63199 -65.3821 -14.7421 3.94886 -65.3821 
-15.2736 0 -65.3821 -15.6638 9.04522 -62.8476 -17.4719 4.68008 -62.8476 
-18.1018 0 -62.8476 -18.0061 10.3978 -59.8917 -20.0846 5.37992 -59.8917 
-20.8087 0 -59.8917 -20.2281 11.6809 -56.5356 -22.5631 6.04381 -56.5356 
-23.3765 0 -56.5356 -22.315 12.886 -52.8018 -24.8908 6.66731 -52.8018 
-25.7882 0 -52.8018 -24.2522 14.0046 -48.7139 -27.0516 7.24611 -48.7139 
-28.0269 0 -48.7139 -26.0273 15.0297 -44.3005 -29.0317 7.7765 -44.3005 
-30.0783 0 -44.3005 -27.6286 15.9543 -39.5911 -30.8178 8.25492 -39.5911 
-31.9288 0 -39.5911 -29.0446 16.772 -34.6163 -32.3972 8.678 -34.6163 
-33.5652 0 -34.6163 -30.2665 17.4776 -29.4101 -33.7602 9.04309 -29.4101 
-34.9773 0 -29.4101 -31.2862 18.0665 -24.0075 -34.8976 9.34775 -24.0075 
-36.1557 0 -24.0075 -32.0961 18.5342 -18.4439 -35.801 9.58974 -18.4439 
-37.0917 0 -18.4439 -32.6916 18.878 -12.757 -36.4652 9.76766 -12.757 
-37.7798 0 -12.757 -33.0686 19.0957 -6.98491 -36.8857 9.8803 -6.98491 
-38.2155 0 -6.98491 -33.2239 19.1854 -1.16598 -37.059 9.92671 -1.16598 
-38.395 0 -1.16598 -33.1572 19.1469 4.66075 -36.9846 9.90678 4.66075 
-32.8689 18.9804 10.4563 -36.663 9.82065 10.4563 -32.3603 18.6867 16.1818 
-36.0957 9.66868 16.1818 -37.397 0 16.1818 -31.6355 18.2682 21.7992 
-35.2872 9.45211 21.7992 -36.5594 0 21.7992 -30.6992 17.7275 27.2708 
-34.2429 9.17237 27.2708 -35.4774 0 27.2708 -1.6812 -0.450331 -71.0232 
-1.50722 -0.870358 -71.0232 -1.23165 -1.23165 -71.0232 -5.36371 -1.43674 -70.3098 
-4.80864 -2.77679 -70.3098 -3.92945 -3.92945 -70.3098 -9.00587 -2.41233 -69.1265 
-8.07389 -4.66233 -69.1265 -6.59769 -6.59769 -69.1265 -11.9138 -3.19126 -67.4798 
-10.6809 -6.16777 -67.4798 -8.72804 -8.72804 -67.4798 -14.7421 -3.94886 -65.3821 
-13.2165 -7.63199 -65.3821 -10.8001 -10.8001 -65.3821 -17.4719 -4.68008 -62.8476 
-15.6638 -9.04522 -62.8476 -12.7999 -12.7999 -62.8476 -20.0846 -5.37992 -59.8917 
-18.0061 -10.3978 -59.8917 -14.714 -14.714 -59.8917 -22.5631 -6.04381 -56.5356 
-20.2281 -11.6809 -56.5356 -16.5297 -16.5297 -56.5356 -24.8908 -6.66731 -52.8018 
-22.315 -12.886 -52.8018 -18.235 -18.235 -52.8018 -27.0516 -7.24611 -48.7139 
-24.2522 -14.0046 -48.7139 -19.818 -19.818 -48.7139 -29.0317 -7.7765 -44.3005 
-26.0273 -15.0297 -44.3005 -21.2686 -21.2686 -44.3005 -30.8178 -8.25492 -39.5911 
-27.6286 -15.9543 -39.5911 -22.5771 -22.5771 -39.5911 -32.3972 -8.678 -34.6163 
-29.0446 -16.772 -34.6163 -23.7342 -23.7342 -34.6163 -33.7602 -9.04309 -29.4101 
-30.2665 -17.4776 -29.4101 -24.7327 -24.7327 -29.4101 -34.8976 -9.34775 -24.0075 
-31.2862 -18.0665 -24.0075 -25.566 -25.566 -24.0075 -35.801 -9.58974 -18.4439 
-32.0961 -18.5342 -18.4439 -26.2278 -26.2278 -18.4439 -36.4652 -9.76766 -12.757 
-32.6916 -18.878 -12.757 -26.7144 -26.7144 -12.757 -36.8857 -9.8803 -6.98491 
-33.0686 -19.0957 -6.98491 -27.0225 -27.0225 -6.98491 -37.059 -9.92671 -1.16598 
-33.2239 -19.1854 -1.16598 -27.1494 -27.1494 -1.16598 -36.9846 -9.90678 4.66075 
-33.1572 -19.1469 4.66075 -27.0949 -27.0949 4.66075 -32.8689 -18.9804 10.4563 
-26.8593 -26.8593 10.4563 -36.0957 -9.66868 16.1818 -32.3603 -18.6867 16.1818 
-26.4437 -26.4437 16.1818 -35.2872 -9.45211 21.7992 -31.6355 -18.2682 21.7992 
-25.8514 -25.8514 21.7992 -34.2429 -9.17237 27.2708 -30.6992 -17.7275 27.2708 
-25.0863 -25.0863 27.2708 -0.870358 -1.50722 -71.0232 -0.450331 -1.6812 -71.0232 
0 -1.74181 -71.0232 -2.77679 -4.80864 -70.3098 -1.43674 -5.36371 -70.3098 
0 -5.55708 -70.3098 -4.66233 -8.07389 -69.1265 -2.41233 -9.00587 -69.1265 
-0 -9.33055 -69.1265 -6.16777 -10.6809 -67.4798 -3.19126 -11.9138 -67.4798 
-0 -12.3433 -67.4798 -7.63199 -13.2165 -65.3821 -3.94886 -14.7421 -65.3821 
-0 -15.2736 -65.3821 -9.04522 -15.6638 -62.8476 -4.68008 -17.4719 -62.8476 
[...]
CELL_DATA 1128
FIELD FieldData 1
vtkOriginalCellIds 1 1128 vtkIdType
681 0 1 2 3 4 5 6 7 
8 9 10 11 12 13 14 30 31 
32 33 34 35 36 37 38 39 40 
41 42 43 44 45 46 47 66 67 
68 69 70 71 72 73 74 75 76 
77 78 79 80 81 82 83 102 103 
104 105 106 107 108 109 110 111 112 
113 114 115 116 117 118 119 138 139 
140 141 142 143 144 145 146 147 148 
149 150 151 152 153 154 155 174 175 
176 177 178 179 180 181 182 183 184 
185 186 187 188 189 190 191 210 211 
212 213 214 215 216 217 218 219 220 
221 222 223 224 225 226 227 246 247 
248 249 250 251 252 253 254 255 256 
257 258 259 260 261 262 263 300 301 
302 303 304 305 306 307 308 309 310 
311 312 313 314 330 331 332 333 334 
335 336 337 338 339 340 341 342 343 
344 345 346 347 366 367 368 369 370 
371 372 373 374 375 376 377 378 379 
380 381 382 383 402 403 404 405 406 
407 408 409 410 411 412 413 414 415 
416 417 418 419 438 439 440 441 442 
443 444 445 446 447 448 449 450 451 
452 453 454 455 474 475 476 477 478 
479 480 481 482 483 484 485 486 487 
488 489 490 491 510 511 512 513 514 
515 516 517 518 519 520 521 522 523 
524 525 526 527 546 547 548 549 550 
551 552 553 554 555 556 557 558 559 
560 561 562 563 600 601 602 603 604 
605 606 607 608 609 610 611 612 613 
614 630 631 632 633 634 635 636 637 
638 639 640 641 642 643 644 645 646 
647 666 667 668 669 670 671 672 673 
674 675 676 677 678 679 680 681 682 
683 702 703 704 705 706 707 708 709 
710 711 712 713 714 715 716 717 718 
719 738 739 740 741 742 743 744 745 
746 747 748 749 750 751 752 753 754 
755 774 775 776 777 778 779 780 781 
782 783 784 785 786 787 788 789 790 
791 810 811 812 813 814 815 816 817 
818 819 820 821 822 823 824 825 826 
827 846 847 848 849 850 851 852 853 
854 855 856 857 858 859 860 861 862 
863 900 901 902 903 904 905 906 907 
908 909 910 911 912 913 914 930 931 
932 933 934 935 936 937 938 939 940 
941 942 943 944 945 946 947 966 967 
968 969 970 971 972 973 974 975 976 
977 978 979 980 981 982 983 1002 1003 
1004 1005 1006 1007 1008 1009 1010 1011 1012 
1013 1014 1015 1016 1017 1018 1019 1038 1039 
1040 1041 1042 1043 1044 1045 1046 1047 1048 
1049 1050 1051 1052 1053 1054 1055 1074 1075 
1076 1077 1078 1079 1080 1081 1082 1083 1084 
1085 1086 1087 1088 1089 1090 1091 1110 1111 
1112 1113 1114 1115 1116 1117 1118 1119 1120 
1121 1122 1123 1124 1125 1126 1127 1146 1147 
1148 1149 1150 1151 1152 1153 1154 1155 1156 
1157 1158 1159 1160 1161 1162 1163 1200 1201 
1202 1203 1204 1205 1206 1207 1208 1209 1210 
1211 1212 1213 1214 1230 1231 1232 1233 1234 
1235 1236 1237 1238 1239 1240 1241 1242 1243 
1244 1245 1246 1247 1266 1267 1268 1269 1270 
1271 1272 1273 1274 1275 1276 1277 1278 1279 
1280 1281 1282 1283 1302 1303 1304 1305 1306 
1307 1308 1309 1310 1311 1312 1313 1314 1315 
1316 1317 1318 1319 1338 1339 1340 1341 1342 
1343 1344 1345 1346 1347 1348 1349 1350 1351 
1352 1353 1354 1355 1374 1375 1376 1377 1378 
1379 1380 1381 1382 1383 1384 1385 1386 1387 
1388 1389 1390 1391 1410 1411 1412 1413 1414 
1415 1416 1417 1418 1419 1420 1421 1423 1424 
1425 1426 1427 1446 1447 1448 1449 1450 1451 
1452 1453 1454 1455 1456 1457 1458 1459 1460 
1461 1462 1463 1500 1501 1502 1503 1504 1505 
1506 1507 1508 1509 1510 1511 1512 1513 1514 
1530 1531 1532 1533 1534 1535 1536 1537 1538 
1539 1540 1541 1542 1543 1544 1545 1546 1547 
1566 1567 1568 1569 1570 1571 1572 1573 1574 
1575 1576 1577 1578 1579 1580 1581 1582 1583 
1602 1603 1604 1605 1606 1607 1608 1609 1610 
1611 1612 1613 1614 1615 1616 1617 1618 1619 
1638 1639 1640 1641 1642 1643 1644 1645 1646 
1647 1648 1649 1650 1651 1652 1653 1654 1655 
1674 1675 1676 1677 1678 1679 1680 1681 1682 
1683 1684 1685 1686 1687 1688 1689 1690 1691 
1710 1711 1712 1713 1714 1715 1716 1717 1718 
1719 1720 1721 1722 1723 1724 1725 1726 1727 
1746 1747 1748 1749 1750 1751 1752 1753 1754 
1755 1756 1757 1758 1759 1760 1761 1762 1763 
1800 1801 1802 1803 1804 1805 1806 1807 1808 
1809 1810 1811 1812 1813 1814 1830 1831 1832 
1833 1834 1835 1836 1837 1838 1839 1840 1841 
1842 1843 1844 1845 1846 1847 1866 1867 1868 
1869 1870 1871 1872 1873 1874 1875 1876 1877 
1878 1879 1880 1881 1882 1883 1902 1903 1904 
1905 1906 1907 1908 1909 1910 1911 1912 1913 
1914 1915 1916 1917 1918 1919 1938 1939 1940 
1941 1942 1943 1944 1945 1946 1947 1948 1949 
1950 1951 1952 1953 1954 1955 1974 1975 1976 
1977 1978 1979 1980 1981 1982 1983 1984 1985 
1986 1987 1988 1989 1990 1991 2010 2011 2012 
2013 2014 2015 2016 2017 2018 2019 2020 2021 
2022 2023 2024 2025 2026 2027 2046 2047 2048 
2049 2050 2051 2052 2053 2054 2055 2056 2057 
2058 2059 2060 2061 2062 2063 2100 2101 2102 
2103 2104 2105 2106 2107 2108 2109 2110 2111 
2112 2113 2114 2130 2131 2132 2133 2134 2135 
2136 2137 2138 2139 2140 2141 2142 2143 2144 
2145 2146 2147 2166 2167 2168 2169 2170 2171 
2172 2173 2174 2175 2176 2177 2178 2179 2180 
2181 2182 2183 2202 2203 2204 2205 2206 2207 
2208 2209 2210 2211 2212 2213 2214 2215 2216 
2217 2218 2219 2238 2239 2240 2241 2242 2243 
2244 2245 2246 2247 2248 2249 2250 2251 2252 
2253 2254 2255 2274 2275 2276 2277 2278 2279 
2280 2281 2282 2283 2284 2285 2286 2287 2288 
2289 2290 2291 2310 2311 2312 2313 2314 2315 
2316 2317 2318 2319 2320 2321 2322 2323 2324 
2325 2326 2327 2346 2347 2348 2349 2350 2351 
2352 2353 2354 2355 2356 2357 2358 2359 2360 
2361 2362 2363 
POINT_DATA 577
FIELD FieldData 1
vtkOriginalPointIds 1 577 vtkIdType
300 373 303 0 1 2 3 4 5 
6 7 8 9 10 11 12 26 27 
28 29 30 31 32 33 34 35 36 
37 50 51 52 53 54 55 56 57 
58 59 60 61 74 75 76 77 78 
79 80 81 82 83 84 85 98 99 
100 101 102 103 104 105 106 107 108 
109 122 123 124 125 126 127 128 129 
130 131 132 133 146 147 148 149 150 
151 152 153 154 155 156 157 170 171 
172 173 174 175 176 177 178 179 180 
181 202 203 204 205 206 207 208 209 
210 220 221 222 223 224 225 226 227 
228 238 239 240 241 242 243 244 245 
246 256 257 258 259 260 261 262 263 
264 274 275 276 277 278 279 280 281 
282 292 293 294 295 296 297 298 299 
300 310 311 312 313 314 315 316 317 
318 328 329 330 331 332 333 334 335 
336 352 353 354 355 356 357 358 359 
360 370 371 372 373 374 375 376 377 
378 388 389 390 391 392 393 394 395 
396 406 407 408 409 410 411 412 413 
414 424 425 426 427 428 429 430 431 
432 442 443 444 445 446 447 448 449 
450 460 461 462 463 464 465 466 467 
468 478 479 480 481 482 483 484 485 
486 502 503 504 505 506 507 508 509 
510 520 521 522 523 524 525 526 527 
528 538 539 540 541 542 543 544 545 
546 556 557 558 559 560 561 562 563 
564 574 575 576 577 578 579 580 581 
582 592 593 594 595 596 597 598 599 
600 610 611 612 613 614 616 617 628 
629 630 631 632 633 634 635 636 652 
653 654 655 656 657 658 659 660 670 
671 672 673 674 675 676 677 678 688 
689 690 691 692 693 694 695 696 706 
707 708 709 710 711 712 713 714 724 
725 726 727 728 729 730 731 732 742 
743 744 745 746 747 748 749 750 760 
761 762 763 764 765 767 768 778 779 
780 781 782 783 784 785 786 802 803 
804 805 806 807 808 809 810 820 821 
822 823 824 825 826 827 828 838 839 
840 841 842 843 844 845 846 856 857 
858 859 860 861 862 863 864 874 875 
876 877 878 879 880 881 882 892 893 
894 895 896 897 898 899 900 910 911 
912 913 914 915 916 917 918 928 929 
930 931 932 933 934 935 936 952 953 
954 955 956 957 958 959 960 970 971 
972 973 974 975 976 977 978 988 989 
990 991 992 993 994 995 996 1006 1007 
1008 1009 1010 1011 1012 1013 1014 1024 1025 
1026 1027 1028 1029 1030 1031 1032 1042 1043 
1044 1045 1046 1047 1048 1049 1050 1060 1061 
1062 1063 1064 1065 1066 1067 1068 1078 1079 
1080 1081 1082 1083 1084 1085 1086 1102 1103 
1104 1105 1106 1107 1114 1115 1116 1117 1118 
1119 1126 1127 1128 1129 1130 1131 1138 1139 
1140 1141 1142 1143 1150 1151 1152 1153 1154 
1155 1162 1163 1164 1165 1166 1167 1174 1175 
1176 1177 1178 1179 1186 1187 1188 1189 1190 
1191 
