# vtk DataFile Version 5.0
vtk output
ASCII
DATASET POLYDATA
POINTS 577 float
0 0 -75 1.97014 0.527725 -74.7486 2.04116 0 -74.7486 
1.76626 1.01994 -74.7486 1.44332 1.44332 -74.7486 6.28552 1.68366 -73.9977 
6.51213 0 -73.9977 5.63506 3.25401 -73.9977 4.60477 4.60477 -73.9977 
10.5536 2.82692 -72.7523 10.9341 0 -72.7523 9.46148 5.46361 -72.7523 
7.73158 7.73158 -72.7523 13.9613 3.73971 -71.0192 14.4647 0 -71.0192 
12.5165 7.22777 -71.0192 10.2281 10.2281 -71.0192 17.2757 4.62752 -68.8116 
17.8986 0 -68.8116 15.4879 8.94364 -68.8116 12.6562 12.6562 -68.8116 
20.4747 5.4844 -66.1441 21.2129 0 -66.1441 18.3559 10.5997 -66.1441 
14.9998 14.9998 -66.1441 23.5364 6.30451 -63.0332 24.3849 0 -63.0332 
21.1007 12.1848 -63.0332 17.2427 17.2427 -63.0332 26.4408 7.0825 -59.501 
27.3941 0 -59.501 23.7046 13.6884 -59.501 19.3705 19.3705 -59.501 
29.1686 7.81316 -55.5713 30.2202 0 -55.5713 26.15 15.1006 -55.5713 
21.3689 21.3689 -55.5713 31.7008 8.49144 -51.2691 32.8436 0 -51.2691 
28.4202 16.4115 -51.2691 23.224 23.224 -51.2691 34.0211 9.11298 -46.6242 
35.2476 0 -46.6242 30.5004 17.6127 -46.6242 24.9239 24.9239 -46.6242 
36.1141 9.67362 -41.6678 37.4161 0 -41.6678 32.3768 18.6963 -41.6678 
26.4572 26.4572 -41.6678 37.965 10.1694 -36.432 39.3338 0 -36.432 
34.0362 19.6545 -36.432 27.8132 27.8132 -36.432 39.5623 10.5972 -30.9528 
40.9886 0 -30.9528 35.4681 20.4814 -30.9528 28.9833 28.9833 -30.9528 
40.8951 10.9543 -25.2667 42.3695 0 -25.2667 36.6631 21.1714 -25.2667 
29.9597 29.9597 -25.2667 41.9538 11.2379 -19.4113 43.4663 0 -19.4113 
37.6122 21.7195 -19.4113 30.7353 30.7353 -19.4113 42.7322 11.4463 -13.4261 
44.2727 0 -13.4261 38.31 22.1224 -13.4261 31.3056 31.3056 -13.4261 
43.225 11.5783 -7.35129 44.7833 0 -7.35129 38.7518 22.3775 -7.35129 
31.6666 31.6666 -7.35129 43.428 11.6327 -1.22714 44.9936 0 -1.22714 
38.9338 22.4826 -1.22714 31.8153 31.8153 -1.22714 43.3408 11.6094 4.90522 
44.9033 0 4.90522 38.8556 22.4375 4.90522 31.7514 31.7514 4.90522 
42.964 11.5084 11.0048 44.5129 0 11.0048 38.5178 22.2424 11.0048 
31.4754 31.4754 11.0048 42.2992 11.3304 17.0306 43.8241 0 17.0306 
37.9218 21.8983 17.0306 30.9883 30.9883 17.0306 41.3517 11.0766 22.9426 
42.8425 0 22.9426 37.0724 21.4077 22.9426 30.2942 30.2942 22.9426 
40.1279 10.7488 28.7013 41.5746 0 28.7013 35.9752 20.7742 28.7013 
29.3977 29.3977 28.7013 1.01994 1.76626 -74.7486 0.527725 1.97014 -74.7486 
0 2.04116 -74.7486 3.25401 5.63506 -73.9977 1.68366 6.28552 -73.9977 
0 6.51213 -73.9977 5.46361 9.46148 -72.7523 2.82692 10.5536 -72.7523 
0 10.9341 -72.7523 7.22777 12.5165 -71.0192 3.73971 13.9613 -71.0192 
0 14.4647 -71.0192 8.94364 15.4879 -68.8116 4.62752 17.2757 -68.8116 
0 17.8986 -68.8116 10.5997 18.3559 -66.1441 5.4844 20.4747 -66.1441 
0 21.2129 -66.1441 12.1848 21.1007 -63.0332 6.30451 23.5364 -63.0332 
0 24.3849 -63.0332 13.6884 23.7046 -59.501 7.0825 26.4408 -59.501 
0 27.3941 -59.501 15.1006 26.15 -55.5713 7.81316 29.1686 -55.5713 
0 30.2202 -55.5713 16.4115 28.4202 -51.2691 8.49144 31.7008 -51.2691 
0 32.8436 -51.2691 17.6127 30.5004 -46.6242 9.11298 34.0211 -46.6242 
0 35.2476 -46.6242 18.6963 32.3768 -41.6678 9.67362 36.1141 -41.6678 
0 37.4161 -41.6678 19.6545 34.0362 -36.432 10.1694 37.965 -36.432 
0 39.3338 -36.432 20.4814 35.4681 -30.9528 10.5972 39.5623 -30.9528 
0 40.9886 -30.9528 21.1714 36.6631 -25.2667 10.9543 40.8951 -25.2667 
0 42.3695 -25.2667 21.7195 37.6122 -19.4113 11.2379 41.9538 -19.4113 
0 43.4663 -19.4113 22.1224 38.31 -13.4261 11.4463 42.7322 -13.4261 
0 44.2727 -13.4261 22.3775 38.7518 -7.35129 11.5783 43.225 -7.35129 
0 44.7833 -7.35129 22.4826 38.9338 -1.22714 11.6327 43.428 -1.22714 
0 44.9936 -1.22714 22.4375 38.8556 4.90522 11.6094 43.3408 4.90522 
0 44.9033 4.90522 22.2424 38.5178 11.0048 11.5084 42.964 11.0048 
0 44.5129 11.0048 21.8983 37.9218 17.0306 11.3304 42.2992 17.0306 
0 43.8241 17.0306 21.4077 37.0724 22.9426 11.0766 41.3517 22.9426 
0 42.8425 22.9426 20.7742 35.9752 28.7013 10.7488 40.1279 28.7013 
0 41.5746 28.7013 -0.527725 1.97014 -74.7486 -1.01994 1.76626 -74.7486 
-1.44332 1.44332 -74.7486 -1.68366 6.28552 -73.9977 -3.25401 5.63506 -73.9977 
-4.60477 4.60477 -73.9977 -2.82692 10.5536 -72.7523 -5.46361 9.46148 -72.7523 
-7.73158 7.73158 -72.7523 -3.73971 13.9613 -71.0192 -7.22777 12.5165 -71.0192 
-10.2281 10.2281 -71.0192 -4.62752 17.2757 -68.8116 -8.94364 15.4879 -68.8116 
-12.6562 12.6562 -68.8116 -5.4844 20.4747 -66.1441 -10.5997 18.3559 -66.1441 
-14.9998 14.9998 -66.1441 -6.30451 23.5364 -63.0332 -12.1848 21.1007 -63.0332 
-17.2427 17.2427 -63.0332 -7.0825 26.4408 -59.501 -13.6884 23.7046 -59.501 
-19.3705 19.3705 -59.501 -7.81316 29.1686 -55.5713 -15.1006 26.15 -55.5713 
-21.3689 21.3689 -55.5713 -8.49144 31.7008 -51.2691 -16.4115 28.4202 -51.2691 
-23.224 23.224 -51.2691 -9.11298 34.0211 -46.6242 -17.6127 30.5004 -46.6242 
-24.9239 24.9239 -46.6242 -9.67362 36.1141 -41.6678 -18.6963 32.3768 -41.6678 
-26.4572 26.4572 -41.6678 -10.1694 37.965 -36.432 -19.6545 34.0362 -36.432 
-27.8132 27.8132 -36.432 -10.5972 39.5623 -30.9528 -20.4814 35.4681 -30.9528 
-28.9833 28.9833 -30.9528 -10.9543 40.8951 -25.2667 -21.1714 36.6631 -25.2667 
-29.9597 29.9597 -25.2667 -11.2379 41.9538 -19.4113 -21.7195 37.6122 -19.4113 
-30.7353 30.7353 -19.4113 -11.4463 42.7322 -13.4261 -22.1224 38.31 -13.4261 
-31.3056 31.3056 -13.4261 -11.5783 43.225 -7.35129 -22.3775 38.7518 -7.35129 
-31.6666 31.6666 -7.35129 -11.6327 43.428 -1.22714 -22.4826 38.9338 -1.22714 
-31.8153 31.8153 -1.22714 -11.6094 43.3408 4.90522 -22.4375 38.8556 4.90522 
-31.7514 31.7514 4.90522 -11.5084 42.964 11.0048 -22.2424 38.5178 11.0048 
-31.4754 31.4754 11.0048 -11.3304 42.2992 17.0306 -21.8983 37.9218 17.0306 
-30.9883 30.9883 17.0306 -11.0766 41.3517 22.9426 -21.4077 37.0724 22.9426 
-30.2942 30.2942 22.9426 -10.7488 40.1279 28.7013 -20.7742 35.9752 28.7013 
-29.3977 29.3977 28.7013 -1.76626 1.01994 -74.7486 -1.97014 0.527725 -74.7486 
-2.04116 0 -74.7486 -5.63506 3.25401 -73.9977 -6.28552 1.68366 -73.9977 
-6.51213 0 -73.9977 -9.46148 5.46361 -72.7523 -10.5536 2.82692 -72.7523 
-10.9341 0 -72.7523 -12.5165 7.22777 -71.0192 -13.9613 3.73971 -71.0192 
-14.4647 0 -71.0192 -15.4879 8.94364 -68.8116 -17.2757 4.62752 -68.8116 
-17.8986 0 -68.8116 -18.3559 10.5997 -66.1441 -20.4747 5.4844 -66.1441 
-21.2129 0 -66.1441 -21.1007 12.1848 -63.0332 -23.5364 6.30451 -63.0332 
-24.3849 0 -63.0332 -23.7046 13.6884 -59.501 -26.4408 7.0825 -59.501 
-27.3941 0 -59.501 -26.15 15.1006 -55.5713 -29.1686 7.81316 -55.5713 
-30.2202 0 -55.5713 -28.4202 16.4115 -51.2691 -31.7008 8.49144 -51.2691 
-32.8436 0 -51.2691 -30.5004 17.6127 -46.6242 -34.0211 9.11298 -46.6242 
-35.2476 0 -46.6242 -32.3768 18.6963 -41.6678 -36.1141 9.67362 -41.6678 
-37.4161 0 -41.6678 -34.0362 19.6545 -36.432 -37.965 10.1694 -36.432 
-39.3338 0 -36.432 -35.4681 20.4814 -30.9528 -39.5623 10.5972 -30.9528 
-40.9886 0 -30.9528 -36.6631 21.1714 -25.2667 -40.8951 10.9543 -25.2667 
-42.3695 0 -25.2667 -37.6122 21.7195 -19.4113 -41.9538 11.2379 -19.4113 
-43.4663 0 -19.4113 -38.31 22.1224 -13.4261 -42.7322 11.4463 -13.4261 
-44.2727 0 -13.4261 -38.7518 22.3775 -7.35129 -43.225 11.5783 -7.35129 
-44.7833 0 -7.35129 -38.9338 22.4826 -1.22714 -43.428 11.6327 -1.22714 
-44.9936 0 -1.22714 -38.8556 22.4375 4.90522 -43.3408 11.6094 4.90522 
-44.9033 0 4.90522 -38.5178 22.2424 11.0048 -42.964 11.5084 11.0048 
-44.5129 0 11.0048 -37.9218 21.8983 17.0306 -42.2992 11.3304 17.0306 
-43.8241 0 17.0306 -37.0724 21.4077 22.9426 -41.3517 11.0766 22.9426 
-42.8425 0 22.9426 -35.9752 20.7742 28.7013 -40.1279 10.7488 28.7013 
-41.5746 0 28.7013 -1.97014 -0.527725 -74.7486 -1.76626 -1.01994 -74.7486 
-1.44332 -1.44332 -74.7486 -6.28552 -1.68366 -73.9977 -5.63506 -3.25401 -73.9977 
-4.60477 -4.60477 -73.9977 -10.5536 -2.82692 -72.7523 -9.46148 -5.46361 -72.7523 
-7.73158 -7.73158 -72.7523 -13.9613 -3.73971 -71.0192 -12.5165 -7.22777 -71.0192 
-10.2281 -10.2281 -71.0192 -17.2757 -4.62752 -68.8116 -15.4879 -8.94364 -68.8116 
-12.6562 -12.6562 -68.8116 -20.4747 -5.4844 -66.1441 -18.3559 -10.5997 -66.1441 
-14.9998 -14.9998 -66.1441 -23.5364 -6.30451 -63.0332 -21.1007 -12.1848 -63.0332 
-17.2427 -17.2427 -63.0332 -26.4408 -7.0825 -59.501 -23.7046 -13.6884 -59.501 
-19.3705 -19.3705 -59.501 -29.1686 -7.81316 -55.5713 -26.15 -15.1006 -55.5713 
-21.3689 -21.3689 -55.5713 -31.7008 -8.49144 -51.2691 -28.4202 -16.4115 -51.2691 
-23.224 -23.224 -51.2691 -34.0211 -9.11298 -46.6242 -30.5004 -17.6127 -46.6242 
-24.9239 -24.9239 -46.6242 -36.1141 -9.67362 -41.6678 -32.3768 -18.6963 -41.6678 
-26.4572 -26.4572 -41.6678 -37.965 -10.1694 -36.432 -34.0362 -19.6545 -36.432 
-27.8132 -27.8132 -36.432 -39.5623 -10.5972 -30.9528 -35.4681 -20.4814 -30.9528 
-28.9833 -28.9833 -30.9528 -40.8951 -10.9543 -25.2667 -36.6631 -21.1714 -25.2667 
-29.9597 -29.9597 -25.2667 -41.9538 -11.2379 -19.4113 -37.6122 -21.7195 -19.4113 
-30.7353 -30.7353 -19.4113 -42.7322 -11.4463 -13.4261 -38.31 -22.1224 -13.4261 
-31.3056 -31.3056 -13.4261 -43.225 -11.5783 -7.35129 -38.7518 -22.3775 -7.35129 
-31.6666 -31.6666 -7.35129 -43.428 -11.6327 -1.22714 -38.9338 -22.4826 -1.22714 
-31.8153 -31.8153 -1.22714 -43.3408 -11.6094 4.90522 -38.8556 -22.4375 4.90522 
-31.7514 -31.7514 4.90522 -42.964 -11.5084 11.0048 -38.5178 -22.2424 11.0048 
-31.4754 -31.4754 11.0048 -42.2992 -11.3304 17.0306 -37.9218 -21.8983 17.0306 
-30.9883 -30.9883 17.0306 -41.3517 -11.0766 22.9426 -37.0724 -21.4077 22.9426 
-30.2942 -30.2942 22.9426 -40.1279 -10.7488 28.7013 -35.9752 -20.7742 28.7013 
-29.3977 -29.3977 28.7013 -1.01994 -1.76626 -74.7486 -0.527725 -1.97014 -74.7486 
0 -2.04116 -74.7486 -3.25401 -5.63506 -73.9977 -1.68366 -6.28552 -73.9977 
0 -6.51213 -73.9977 -5.46361 -9.46148 -72.7523 -2.82692 -10.5536 -72.7523 
-0 -10.9341 -72.7523 -7.22777 -12.5165 -71.0192 -3.73971 -13.9613 -71.0192 
-0 -14.4647 -71.0192 -8.94364 -15.4879 -68.8116 -4.62752 -17.2757 -68.8116 
-0 -17.8986 -68.8116 -10.5997 -18.3559 -66.1441 -5.4844 -20.4747 -66.1441 
[...]
CELL_DATA 1128
FIELD FieldData 1
vtkOriginalCellIds 1 1128 vtkIdType
15 16 17 18 19 20 21 22 23 
24 25 26 27 28 29 48 49 50 
51 52 53 54 55 56 57 58 59 
60 61 62 63 64 65 84 85 86 
87 88 89 90 91 92 93 94 95 
96 97 98 99 100 101 120 121 122 
123 124 125 126 127 128 129 130 131 
132 133 134 135 136 137 156 157 158 
159 160 161 162 163 164 165 166 167 
168 169 170 171 172 173 192 193 194 
195 196 197 198 199 200 201 202 203 
204 205 206 207 208 209 228 229 230 
231 232 233 234 235 236 237 238 239 
240 241 242 243 244 245 264 265 266 
267 268 269 270 271 272 273 274 275 
276 277 278 279 280 281 315 316 317 
318 319 320 321 322 323 324 325 326 
327 328 329 348 349 350 351 352 353 
354 355 356 357 358 359 360 361 362 
363 364 365 384 385 386 387 388 389 
390 391 392 393 394 395 396 397 398 
399 400 401 420 421 422 423 424 425 
426 427 428 429 430 431 432 433 434 
435 436 437 456 457 458 459 460 461 
462 463 464 465 466 467 468 469 470 
471 472 473 492 493 494 495 496 497 
498 499 500 501 502 503 504 505 506 
507 508 509 528 529 530 531 532 533 
534 535 536 537 538 539 540 541 542 
543 544 545 564 565 566 567 568 569 
570 571 572 573 574 575 576 577 578 
579 580 581 615 616 617 618 619 620 
621 622 623 624 625 626 627 628 629 
648 649 650 651 652 653 654 655 656 
657 658 659 660 661 662 663 664 665 
684 685 686 687 688 689 690 691 692 
693 694 695 696 697 698 699 700 701 
720 721 722 723 724 725 726 727 728 
729 730 731 732 733 734 735 736 737 
756 757 758 759 760 761 762 763 764 
765 766 767 768 769 770 771 772 773 
792 793 794 795 796 797 798 799 800 
801 802 803 804 805 806 807 808 809 
828 829 830 831 832 833 834 835 836 
837 838 839 840 841 842 843 844 845 
864 865 866 867 868 869 870 871 872 
873 874 875 876 877 878 879 880 881 
915 916 917 918 919 920 921 922 923 
924 925 926 927 928 929 948 949 950 
951 952 953 954 955 956 957 958 959 
960 961 962 963 964 965 984 985 986 
987 988 989 990 991 992 993 994 995 
996 997 998 999 1000 1001 1020 1021 1022 
1023 1024 1025 1026 1027 1028 1029 1030 1031 
1032 1033 1034 1035 1036 1037 1056 1057 1058 
1059 1060 1061 1062 1063 1064 1065 1066 1067 
1068 1069 1070 1071 1072 1073 1092 1093 1094 
1095 1096 1097 1098 1099 1100 1101 1102 1103 
1104 1105 1106 1107 1108 1109 1128 1129 1130 
1131 1132 1133 1134 1135 1136 1137 1138 1139 
1140 1141 1142 1143 1144 1145 1164 1165 1166 
1167 1168 1169 1170 1171 1172 1173 1174 1175 
1176 1177 1178 1179 1180 1181 1215 1216 1217 
1218 1219 1220 1221 1222 1223 1224 1225 1226 
1227 1228 1229 1248 1249 1250 1251 1252 1253 
1254 1255 1256 1257 1258 1259 1260 1261 1262 
1263 1264 1265 1284 1285 1286 1287 1288 1289 
1290 1291 1292 1293 1294 1295 1296 1297 1298 
1299 1300 1301 1320 1321 1322 1323 1324 1325 
1326 1327 1328 1329 1330 1331 1332 1333 1334 
1335 1336 1337 1356 1357 1358 1359 1360 1361 
1362 1363 1364 1365 1366 1367 1368 1369 1370 
1371 1372 1373 1392 1393 1394 1395 1396 1397 
1398 1399 1400 1401 1402 1403 1404 1405 1406 
1407 1408 1409 1428 1429 1430 1431 1432 1433 
1434 1435 1436 1437 1438 1439 1440 1441 1442 
1443 1444 1445 1464 1465 1466 1467 1468 1469 
1470 1471 1472 1473 1474 1475 1476 1477 1478 
1479 1480 1481 1515 1516 1517 1518 1519 1520 
1521 1522 1523 1524 1525 1526 1527 1528 1529 
1548 1549 1550 1551 1552 1553 1554 1555 1556 
1557 1558 1559 1560 1561 1562 1563 1564 1565 
1584 1585 1586 1587 1588 1589 1590 1591 1592 
1593 1594 1595 1596 1597 1598 1599 1600 1601 
1620 1621 1622 1623 1624 1625 1626 1627 1628 
1629 1630 1631 1632 1633 1634 1635 1636 1637 
1656 1657 1658 1659 1660 1661 1662 1663 1664 
1665 1666 1667 1668 1669 1670 1671 1672 1673 
1692 1693 1694 1695 1696 1697 1698 1699 1700 
1701 1702 1703 1704 1705 1706 1707 1708 1709 
1728 1729 1730 1731 1732 1733 1734 1735 1736 
1737 1738 1739 1740 1741 1742 1743 1744 1745 
1764 1765 1766 1767 1768 1769 1770 1771 1772 
1773 1774 1775 1776 1777 1778 1779 1780 1781 
1815 1816 1817 1818 1819 1820 1821 1822 1823 
1824 1825 1826 1827 1828 1829 1848 1849 1850 
1851 1852 1853 1854 1855 1856 1857 1858 1859 
1860 1861 1862 1863 1864 1865 1884 1885 1886 
1887 1888 1889 1890 1891 1892 1893 1894 1895 
1896 1897 1898 1899 1900 1901 1920 1921 1922 
1923 1924 1925 1926 1927 1928 1929 1930 1931 
1932 1933 1934 1935 1936 1937 1956 1957 1958 
1959 1960 1961 1962 1963 1964 1965 1966 1967 
1968 1969 1970 1971 1972 1973 1992 1993 1994 
1995 1996 1997 1998 1999 2000 2001 2002 2003 
2004 2005 2006 2007 2008 2009 2028 2029 2030 
2031 2032 2033 2034 2035 2036 2037 2038 2039 
2040 2041 2042 2043 2044 2045 2064 2065 2066 
2067 2068 2069 2070 2071 2072 2073 2074 2075 
2076 2077 2078 2079 2080 2081 2115 2116 2117 
2118 2119 2120 2121 2122 2123 2124 2125 2126 
2127 2128 2129 2148 2149 2150 2151 2152 2153 
2154 2155 2156 2157 2158 2159 2160 2161 2162 
2163 2164 2165 2184 2185 2186 2187 2188 2189 
2190 2191 2192 2193 2194 2195 2196 2197 2198 
2199 2200 2201 2220 2221 2222 2223 2224 2225 
2226 2227 2228 2229 2230 2231 2232 2233 2234 
2235 2236 2237 2256 2257 2258 2259 2260 2261 
2262 2263 2264 2265 2266 2267 2268 2269 2270 
2271 2272 2273 2292 2293 2294 2295 2296 2297 
2298 2299 2300 2301 2302 2303 2304 2305 2306 
2307 2308 2309 2328 2329 2330 2331 2332 2333 
2334 2335 2336 2337 2338 2339 2340 2341 2342 
2343 2344 2345 2364 2365 2366 2367 2368 2369 
2370 2371 2372 2373 2374 2375 2376 2377 2378 
2379 2380 2381 
POINT_DATA 577
FIELD FieldData 1
vtkOriginalPointIds 1 577 vtkIdType
13 14 15 16 17 18 19 20 21 
22 23 24 25 38 39 40 41 42 
43 44 45 46 47 48 49 62 63 
64 65 66 67 68 69 70 71 72 
73 86 87 88 89 90 91 92 93 
94 95 96 97 110 111 112 113 114 
115 116 117 118 119 120 121 134 135 
136 137 138 139 140 141 142 143 144 
145 158 159 160 161 162 163 164 165 
166 167 168 169 182 183 184 185 186 
187 188 189 190 191 192 193 211 212 
213 214 215 216 217 218 219 229 230 
231 232 233 234 235 236 237 247 248 
249 250 251 252 253 254 255 265 266 
267 268 269 270 271 272 273 283 284 
285 286 287 288 289 290 291 301 302 
303 304 305 306 307 308 309 319 320 
321 322 323 324 325 326 327 337 338 
339 340 341 342 343 344 345 361 362 
363 364 365 366 367 368 369 379 380 
381 382 383 384 385 386 387 397 398 
399 400 401 402 403 404 405 415 416 
417 418 419 420 421 422 423 433 434 
435 436 437 438 439 440 441 451 452 
453 454 455 456 457 458 459 469 470 
471 472 473 474 475 476 477 487 488 
489 490 491 492 493 494 495 511 512 
513 514 515 516 517 518 519 529 530 
531 532 533 534 535 536 537 547 548 
549 550 551 552 553 554 555 565 566 
567 568 569 570 571 572 573 583 584 
585 586 587 588 589 590 591 601 602 
603 604 605 606 607 608 609 619 620 
621 622 623 624 625 626 627 637 638 
639 640 641 642 643 644 645 661 662 
663 664 665 666 667 668 669 679 680 
681 682 683 684 685 686 687 697 698 
699 700 701 702 703 704 705 715 716 
717 718 719 720 721 722 723 733 734 
735 736 737 738 739 740 741 751 752 
753 754 755 756 757 758 759 769 770 
771 772 773 774 775 776 777 787 788 
789 790 791 792 793 794 795 811 812 
813 814 815 816 817 818 819 829 830 
831 832 833 834 835 836 837 847 848 
849 850 851 852 853 854 855 865 866 
867 868 869 870 871 872 873 883 884 
885 886 887 888 889 890 891 901 902 
903 904 905 906 907 908 909 919 920 
921 922 923 924 925 926 927 937 938 
939 940 941 942 943 944 945 961 962 
963 964 965 966 967 968 969 979 980 
981 982 983 984 985 986 987 997 998 
999 1000 1001 1002 1003 1004 1005 1015 1016 
1017 1018 1019 1020 1021 1022 1023 1033 1034 
1035 1036 1037 1038 1039 1040 1041 1051 1052 
1053 1054 1055 1056 1057 1058 1059 1069 1070 
1071 1072 1073 1074 1075 1076 1077 1087 1088 
1089 1090 1091 1092 1093 1094 1095 1108 1109 
1110 1111 1112 1113 1120 1121 1122 1123 1124 
1125 1132 1133 1134 1135 1136 1137 1144 1145 
1146 1147 1148 1149 1156 1157 1158 1159 1160 
1161 1168 1169 1170 1171 1172 1173 1180 1181 
1182 1183 1184 1185 1192 1193 1194 1195 1196 
1197 
