# vtk DataFile Version 5.0
vtk output
ASCII
DATASET POLYDATA
POINTS 541 float
0 0 -64.725 4.54129 1.21644 -63.86 3.32695 3.32695 -63.86 
7.62498 2.04245 -62.7852 7.89989 0 -62.7852 6.83592 3.94746 -62.7852 
5.58607 5.58607 -62.7852 10.087 2.70194 -61.2896 10.4507 0 -61.2896 
9.04317 5.22206 -61.2896 7.3898 7.3898 -61.2896 12.4817 3.34338 -59.3844 
12.9317 0 -59.3844 11.19 6.46178 -59.3844 9.1441 9.1441 -59.3844 
14.793 3.96248 -57.0824 15.3263 0 -57.0824 13.2621 7.65828 -57.0824 
10.8374 10.8374 -57.0824 17.005 4.55501 -54.3977 17.6181 0 -54.3977 
15.2453 8.80352 -54.3977 12.4579 12.4579 -54.3977 19.1035 5.11711 -51.3494 
19.7922 0 -51.3494 17.1266 9.88987 -51.3494 13.9952 13.9952 -51.3494 
21.0743 5.64501 -47.958 21.8341 0 -47.958 18.8934 10.9102 -47.958 
15.439 15.439 -47.958 22.9038 6.13507 -44.2452 23.7295 0 -44.2452 
20.5336 11.8573 -44.2452 16.7793 16.7793 -44.2452 24.5802 6.58413 -40.2367 
25.4664 0 -40.2367 22.0365 12.7252 -40.2367 18.0075 18.0075 -40.2367 
26.0924 6.98919 -35.9593 27.0331 0 -35.9593 23.3922 13.5081 -35.9593 
19.1153 19.1153 -35.9593 27.4297 7.34739 -31.4408 28.4187 0 -31.4408 
24.5912 14.2004 -31.4408 20.095 20.095 -31.4408 28.5838 7.65648 -26.7123 
29.6143 0 -26.7123 25.6257 14.7978 -26.7123 20.9404 20.9404 -26.7123 
29.5467 7.91448 -21.8052 30.612 0 -21.8052 26.4891 15.2963 -21.8052 
21.6459 21.6459 -21.8052 30.3116 8.11938 -16.752 31.4044 0 -16.752 
27.1748 15.6923 -16.752 22.2063 22.2063 -16.752 30.874 8.26995 -11.5867 
31.987 0 -11.5867 27.679 15.9834 -11.5867 22.6183 22.6183 -11.5867 
31.2301 8.36532 -6.34416 32.3559 0 -6.34416 27.9982 16.1677 -6.34416 
22.8791 22.8791 -6.34416 31.3767 8.40463 -1.05902 32.5079 0 -1.05902 
28.1297 16.2437 -1.05902 22.9866 22.9866 -1.05902 31.3137 8.38779 4.2332 
32.4426 0 4.2332 28.0732 16.2111 4.2332 22.9404 22.9404 4.2332 
31.0415 8.31482 9.49714 32.1606 0 9.49714 27.8291 16.0701 9.49714 
22.741 22.741 9.49714 30.5612 8.18621 14.6974 31.6629 0 14.6974 
27.3985 15.8215 14.6974 22.389 22.389 14.6974 29.8766 8.00284 19.7995 
30.9537 0 19.7995 26.7848 15.4671 19.7995 21.8876 21.8876 19.7995 
28.9924 7.76601 24.7692 30.0376 0 24.7692 25.9921 15.0094 24.7692 
21.2398 21.2398 24.7692 1.21644 4.54129 -63.86 3.94746 6.83592 -62.7852 
2.04245 7.62498 -62.7852 0 7.89989 -62.7852 5.22206 9.04317 -61.2896 
2.70194 10.087 -61.2896 0 10.4507 -61.2896 6.46178 11.19 -59.3844 
3.34338 12.4817 -59.3844 0 12.9317 -59.3844 7.65828 13.2621 -57.0824 
3.96248 14.793 -57.0824 0 15.3263 -57.0824 8.80352 15.2453 -54.3977 
4.55501 17.005 -54.3977 0 17.6181 -54.3977 9.88987 17.1266 -51.3494 
5.11711 19.1035 -51.3494 0 19.7922 -51.3494 10.9102 18.8934 -47.958 
5.64501 21.0743 -47.958 0 21.8341 -47.958 11.8573 20.5336 -44.2452 
6.13507 22.9038 -44.2452 0 23.7295 -44.2452 12.7252 22.0365 -40.2367 
6.58413 24.5802 -40.2367 0 25.4664 -40.2367 13.5081 23.3922 -35.9593 
6.98919 26.0924 -35.9593 0 27.0331 -35.9593 14.2004 24.5912 -31.4408 
7.34739 27.4297 -31.4408 0 28.4187 -31.4408 14.7978 25.6257 -26.7123 
7.65648 28.5838 -26.7123 0 29.6143 -26.7123 15.2963 26.4891 -21.8052 
7.91448 29.5467 -21.8052 0 30.612 -21.8052 15.6923 27.1748 -16.752 
8.11938 30.3116 -16.752 0 31.4044 -16.752 15.9834 27.679 -11.5867 
8.26995 30.874 -11.5867 0 31.987 -11.5867 16.1677 27.9982 -6.34416 
8.36532 31.2301 -6.34416 0 32.3559 -6.34416 16.2437 28.1297 -1.05902 
8.40463 31.3767 -1.05902 0 32.5079 -1.05902 16.2111 28.0732 4.2332 
8.38779 31.3137 4.2332 0 32.4426 4.2332 16.0701 27.8291 9.49714 
8.31482 31.0415 9.49714 0 32.1606 9.49714 15.8215 27.3985 14.6974 
8.18621 30.5612 14.6974 0 31.6629 14.6974 15.4671 26.7848 19.7995 
8.00284 29.8766 19.7995 0 30.9537 19.7995 15.0094 25.9921 24.7692 
7.76601 28.9924 24.7692 0 30.0376 24.7692 -1.21644 4.54129 -63.86 
-3.32695 3.32695 -63.86 -2.04245 7.62498 -62.7852 -3.94746 6.83592 -62.7852 
-5.58607 5.58607 -62.7852 -2.70194 10.087 -61.2896 -5.22206 9.04317 -61.2896 
-7.3898 7.3898 -61.2896 -3.34338 12.4817 -59.3844 -6.46178 11.19 -59.3844 
-9.1441 9.1441 -59.3844 -3.96248 14.793 -57.0824 -7.65828 13.2621 -57.0824 
-10.8374 10.8374 -57.0824 -4.55501 17.005 -54.3977 -8.80352 15.2453 -54.3977 
-12.4579 12.4579 -54.3977 -5.11711 19.1035 -51.3494 -9.88987 17.1266 -51.3494 
-13.9952 13.9952 -51.3494 -5.64501 21.0743 -47.958 -10.9102 18.8934 -47.958 
-15.439 15.439 -47.958 -6.13507 22.9038 -44.2452 -11.8573 20.5336 -44.2452 
-16.7793 16.7793 -44.2452 -6.58413 24.5802 -40.2367 -12.7252 22.0365 -40.2367 
-18.0075 18.0075 -40.2367 -6.98919 26.0924 -35.9593 -13.5081 23.3922 -35.9593 
-19.1153 19.1153 -35.9593 -7.34739 27.4297 -31.4408 -14.2004 24.5912 -31.4408 
-20.095 20.095 -31.4408 -7.65648 28.5838 -26.7123 -14.7978 25.6257 -26.7123 
-20.9404 20.9404 -26.7123 -7.91448 29.5467 -21.8052 -15.2963 26.4891 -21.8052 
-21.6459 21.6459 -21.8052 -8.11938 30.3116 -16.752 -15.6923 27.1748 -16.752 
-22.2063 22.2063 -16.752 -8.26995 30.874 -11.5867 -15.9834 27.679 -11.5867 
-22.6183 22.6183 -11.5867 -8.36532 31.2301 -6.34416 -16.1677 27.9982 -6.34416 
-22.8791 22.8791 -6.34416 -8.40463 31.3767 -1.05902 -16.2437 28.1297 -1.05902 
-22.9866 22.9866 -1.05902 -8.38779 31.3137 4.2332 -16.2111 28.0732 4.2332 
-22.9404 22.9404 4.2332 -8.31482 31.0415 9.49714 -16.0701 27.8291 9.49714 
-22.741 22.741 9.49714 -8.18621 30.5612 14.6974 -15.8215 27.3985 14.6974 
-22.389 22.389 14.6974 -8.00284 29.8766 19.7995 -15.4671 26.7848 19.7995 
-21.8876 21.8876 19.7995 -7.76601 28.9924 24.7692 -15.0094 25.9921 24.7692 
-21.2398 21.2398 24.7692 -4.54129 1.21644 -63.86 -6.83592 3.94746 -62.7852 
-7.62498 2.04245 -62.7852 -7.89989 0 -62.7852 -9.04317 5.22206 -61.2896 
-10.087 2.70194 -61.2896 -10.4507 0 -61.2896 -11.19 6.46178 -59.3844 
-12.4817 3.34338 -59.3844 -12.9317 0 -59.3844 -13.2621 7.65828 -57.0824 
-14.793 3.96248 -57.0824 -15.3263 0 -57.0824 -15.2453 8.80352 -54.3977 
-17.005 4.55501 -54.3977 -17.6181 0 -54.3977 -17.1266 9.88987 -51.3494 
-19.1035 5.11711 -51.3494 -19.7922 0 -51.3494 -18.8934 10.9102 -47.958 
-21.0743 5.64501 -47.958 -21.8341 0 -47.958 -20.5336 11.8573 -44.2452 
-22.9038 6.13507 -44.2452 -23.7295 0 -44.2452 -22.0365 12.7252 -40.2367 
-24.5802 6.58413 -40.2367 -25.4664 0 -40.2367 -23.3922 13.5081 -35.9593 
-26.0924 6.98919 -35.9593 -27.0331 0 -35.9593 -24.5912 14.2004 -31.4408 
-27.4297 7.34739 -31.4408 -28.4187 0 -31.4408 -25.6257 14.7978 -26.7123 
-28.5838 7.65648 -26.7123 -29.6143 0 -26.7123 -26.4891 15.2963 -21.8052 
-29.5467 7.91448 -21.8052 -30.612 0 -21.8052 -27.1748 15.6923 -16.752 
-30.3116 8.11938 -16.752 -31.4044 0 -16.752 -27.679 15.9834 -11.5867 
-30.874 8.26995 -11.5867 -31.987 0 -11.5867 -27.9982 16.1677 -6.34416 
-31.2301 8.36532 -6.34416 -32.3559 0 -6.34416 -28.1297 16.2437 -1.05902 
-31.3767 8.40463 -1.05902 -32.5079 0 -1.05902 -28.0732 16.2111 4.2332 
-31.3137 8.38779 4.2332 -32.4426 0 4.2332 -27.8291 16.0701 9.49714 
-31.0415 8.31482 9.49714 -32.1606 0 9.49714 -27.3985 15.8215 14.6974 
-30.5612 8.18621 14.6974 -31.6629 0 14.6974 -26.7848 15.4671 19.7995 
-29.8766 8.00284 19.7995 -30.9537 0 19.7995 -25.9921 15.0094 24.7692 
-28.9924 7.76601 24.7692 -30.0376 0 24.7692 -4.54129 -1.21644 -63.86 
-3.32695 -3.32695 -63.86 -7.62498 -2.04245 -62.7852 -6.83592 -3.94746 -62.7852 
-5.58607 -5.58607 -62.7852 -10.087 -2.70194 -61.2896 -9.04317 -5.22206 -61.2896 
-7.3898 -7.3898 -61.2896 -12.4817 -3.34338 -59.3844 -11.19 -6.46178 -59.3844 
-9.1441 -9.1441 -59.3844 -14.793 -3.96248 -57.0824 -13.2621 -7.65828 -57.0824 
-10.8374 -10.8374 -57.0824 -17.005 -4.55501 -54.3977 -15.2453 -8.80352 -54.3977 
-12.4579 -12.4579 -54.3977 -19.1035 -5.11711 -51.3494 -17.1266 -9.88987 -51.3494 
-13.9952 -13.9952 -51.3494 -21.0743 -5.64501 -47.958 -18.8934 -10.9102 -47.958 
-15.439 -15.439 -47.958 -22.9038 -6.13507 -44.2452 -20.5336 -11.8573 -44.2452 
-16.7793 -16.7793 -44.2452 -24.5802 -6.58413 -40.2367 -22.0365 -12.7252 -40.2367 
-18.0075 -18.0075 -40.2367 -26.0924 -6.98919 -35.9593 -23.3922 -13.5081 -35.9593 
-19.1153 -19.1153 -35.9593 -27.4297 -7.34739 -31.4408 -24.5912 -14.2004 -31.4408 
-20.095 -20.095 -31.4408 -28.5838 -7.65648 -26.7123 -25.6257 -14.7978 -26.7123 
-20.9404 -20.9404 -26.7123 -29.5467 -7.91448 -21.8052 -26.4891 -15.2963 -21.8052 
-21.6459 -21.6459 -21.8052 -30.3116 -8.11938 -16.752 -27.1748 -15.6923 -16.752 
-22.2063 -22.2063 -16.752 -30.874 -8.26995 -11.5867 -27.679 -15.9834 -11.5867 
-22.6183 -22.6183 -11.5867 -31.2301 -8.36532 -6.34416 -27.9982 -16.1677 -6.34416 
-22.8791 -22.8791 -6.34416 -31.3767 -8.40463 -1.05902 -28.1297 -16.2437 -1.05902 
-22.9866 -22.9866 -1.05902 -31.3137 -8.38779 4.2332 -28.0732 -16.2111 4.2332 
-22.9404 -22.9404 4.2332 -31.0415 -8.31482 9.49714 -27.8291 -16.0701 9.49714 
-22.741 -22.741 9.49714 -30.5612 -8.18621 14.6974 -27.3985 -15.8215 14.6974 
-22.389 -22.389 14.6974 -29.8766 -8.00284 19.7995 -26.7848 -15.4671 19.7995 
-21.8876 -21.8876 19.7995 -28.9924 -7.76601 24.7692 -25.9921 -15.0094 24.7692 
-21.2398 -21.2398 24.7692 -1.21644 -4.54129 -63.86 -3.94746 -6.83592 -62.7852 
-2.04245 -7.62498 -62.7852 0 -7.89989 -62.7852 -5.22206 -9.04317 -61.2896 
-2.70194 -10.087 -61.2896 0 -10.4507 -61.2896 -6.46178 -11.19 -59.3844 
-3.34338 -12.4817 -59.3844 0 -12.9317 -59.3844 -7.65828 -13.2621 -57.0824 
-3.96248 -14.793 -57.0824 0 -15.3263 -57.0824 -8.80352 -15.2453 -54.3977 
-4.55501 -17.005 -54.3977 0 -17.6181 -54.3977 -9.88987 -17.1266 -51.3494 
-5.11711 -19.1035 -51.3494 0 -19.7922 -51.3494 -10.9102 -18.8934 -47.958 
-5.64501 -21.0743 -47.958 0 -21.8341 -47.958 -11.8573 -20.5336 -44.2452 
-6.13507 -22.9038 -44.2452 0 -23.7295 -44.2452 -12.7252 -22.0365 -40.2367 
-6.58413 -24.5802 -40.2367 0 -25.4664 -40.2367 -13.5081 -23.3922 -35.9593 
-6.98919 -26.0924 -35.9593 0 -27.0331 -35.9593 -14.2004 -24.5912 -31.4408 
-7.34739 -27.4297 -31.4408 0 -28.4187 -31.4408 -14.7978 -25.6257 -26.7123 
-7.65648 -28.5838 -26.7123 0 -29.6143 -26.7123 -15.2963 -26.4891 -21.8052 
-7.91448 -29.5467 -21.8052 0 -30.612 -21.8052 -15.6923 -27.1748 -16.752 
-8.11938 -30.3116 -16.752 0 -31.4044 -16.752 -15.9834 -27.679 -11.5867 
[...]
CELL_DATA 1128
FIELD FieldData 1
vtkOriginalCellIds 1 1128 vtkIdType
15 16 17 18 19 20 21 22 23 
24 25 26 27 28 29 48 49 50 
51 52 53 54 55 56 57 58 59 
60 61 62 63 64 65 84 85 86 
87 88 89 90 91 92 93 94 95 
96 97 98 99 100 101 120 121 122 
123 124 125 126 127 128 129 130 131 
132 133 134 135 136 137 156 157 158 
159 160 161 162 163 164 165 166 167 
168 169 170 171 172 173 192 193 194 
195 196 197 198 199 200 201 202 203 
204 205 206 207 208 209 228 229 230 
231 232 233 234 235 236 237 238 239 
240 241 242 243 244 245 264 265 266 
267 268 269 270 271 272 273 274 275 
276 277 278 279 280 281 315 316 317 
318 319 320 321 322 323 324 325 326 
327 328 329 348 349 350 351 352 353 
354 355 356 357 358 359 360 361 362 
363 364 365 384 385 386 387 388 389 
390 391 392 393 394 395 396 397 398 
399 400 401 420 421 422 423 424 425 
426 427 428 429 430 431 432 433 434 
435 436 437 456 457 458 459 460 461 
462 463 464 465 466 467 468 469 470 
471 472 473 492 493 494 495 496 497 
498 499 500 501 502 503 504 505 506 
507 508 509 528 529 530 531 532 533 
534 535 536 537 538 539 540 541 542 
543 544 545 564 565 566 567 568 569 
570 571 572 573 574 575 576 577 578 
579 580 581 615 616 617 618 619 620 
621 622 623 624 625 626 627 628 629 
648 649 650 651 652 653 654 655 656 
657 658 659 660 661 662 663 664 665 
684 685 686 687 688 689 690 691 692 
693 694 695 696 697 698 699 700 701 
720 721 722 723 724 725 726 727 728 
729 730 731 732 733 734 735 736 737 
756 757 758 759 760 761 762 763 764 
765 766 767 768 769 770 771 772 773 
792 793 794 795 796 797 798 799 800 
801 802 803 804 805 806 807 808 809 
828 829 830 831 832 833 834 835 836 
837 838 839 840 841 842 843 844 845 
864 865 866 867 868 869 870 871 872 
873 874 875 876 877 878 879 880 881 
915 916 917 918 919 920 921 922 923 
924 925 926 927 928 929 948 949 950 
951 952 953 954 955 956 957 958 959 
960 961 962 963 964 965 984 985 986 
987 988 989 990 991 992 993 994 995 
996 997 998 999 1000 1001 1020 1021 1022 
1023 1024 1025 1026 1027 1028 1029 1030 1031 
1032 1033 1034 1035 1036 1037 1056 1057 1058 
1059 1060 1061 1062 1063 1064 1065 1066 1067 
1068 1069 1070 1071 1072 1073 1092 1093 1094 
1095 1096 1097 1098 1099 1100 1101 1102 1103 
1104 1105 1106 1107 1108 1109 1128 1129 1130 
1131 1132 1133 1134 1135 1136 1137 1138 1139 
1140 1141 1142 1143 1144 1145 1164 1165 1166 
1167 1168 1169 1170 1171 1172 1173 1174 1175 
1176 1177 1178 1179 1180 1181 1215 1216 1217 
1218 1219 1220 1221 1222 1223 1224 1225 1226 
1227 1228 1229 1248 1249 1250 1251 1252 1253 
1254 1255 1256 1257 1258 1259 1260 1261 1262 
1263 1264 1265 1284 1285 1286 1287 1288 1289 
1290 1291 1292 1293 1294 1295 1296 1297 1298 
1299 1300 1301 1320 1321 1322 1323 1324 1325 
1326 1327 1328 1329 1330 1331 1332 1333 1334 
1335 1336 1337 1356 1357 1358 1359 1360 1361 
1362 1363 1364 1365 1366 1367 1368 1369 1370 
1371 1372 1373 1392 1393 1394 1395 1396 1397 
1398 1399 1400 1401 1402 1403 1404 1405 1406 
1407 1408 1409 1428 1429 1430 1431 1432 1433 
1434 1435 1436 1437 1438 1439 1440 1441 1442 
1443 1444 1445 1464 1465 1466 1467 1468 1469 
1470 1471 1472 1473 1474 1475 1476 1477 1478 
1479 1480 1481 1515 1516 1517 1518 1519 1520 
1521 1522 1523 1524 1525 1526 1527 1528 1529 
1548 1549 1550 1551 1552 1553 1554 1555 1556 
1557 1558 1559 1560 1561 1562 1563 1564 1565 
1584 1585 1586 1587 1588 1589 1590 1591 1592 
1593 1594 1595 1596 1597 1598 1599 1600 1601 
1620 1621 1622 1623 1624 1625 1626 1627 1628 
1629 1630 1631 1632 1633 1634 1635 1636 1637 
1656 1657 1658 1659 1660 1661 1662 1663 1664 
1665 1666 1667 1668 1669 1670 1671 1672 1673 
1692 1693 1694 1695 1696 1697 1698 1699 1700 
1701 1702 1703 1704 1705 1706 1707 1708 1709 
1728 1729 1730 1731 1732 1733 1734 1735 1736 
1737 1738 1739 1740 1741 1742 1743 1744 1745 
1764 1765 1766 1767 1768 1769 1770 1771 1772 
1773 1774 1775 1776 1777 1778 1779 1780 1781 
1815 1816 1817 1818 1819 1820 1821 1822 1823 
1824 1825 1826 1827 1828 1829 1848 1849 1850 
1851 1852 1853 1854 1855 1856 1857 1858 1859 
1860 1861 1862 1863 1864 1865 1884 1885 1886 
1887 1888 1889 1890 1891 1892 1893 1894 1895 
1896 1897 1898 1899 1900 1901 1920 1921 1922 
1923 1924 1925 1926 1927 1928 1929 1930 1931 
1932 1933 1934 1935 1936 1937 1956 1957 1958 
1959 1960 1961 1962 1963 1964 1965 1966 1967 
1968 1969 1970 1971 1972 1973 1992 1993 1994 
1995 1996 1997 1998 1999 2000 2001 2002 2003 
2004 2005 2006 2007 2008 2009 2028 2029 2030 
2031 2032 2033 2034 2035 2036 2037 2038 2039 
2040 2041 2042 2043 2044 2045 2064 2065 2066 
2067 2068 2069 2070 2071 2072 2073 2074 2075 
2076 2077 2078 2079 2080 2081 2115 2116 2117 
2118 2119 2120 2121 2122 2123 2124 2125 2126 
2127 2128 2129 2148 2149 2150 2151 2152 2153 
2154 2155 2156 2157 2158 2159 2160 2161 2162 
2163 2164 2165 2184 2185 2186 2187 2188 2189 
2190 2191 2192 2193 2194 2195 2196 2197 2198 
2199 2200 2201 2220 2221 2222 2223 2224 2225 
2226 2227 2228 2229 2230 2231 2232 2233 2234 
2235 2236 2237 2256 2257 2258 2259 2260 2261 
2262 2263 2264 2265 2266 2267 2268 2269 2270 
2271 2272 2273 2292 2293 2294 2295 2296 2297 
2298 2299 2300 2301 2302 2303 2304 2305 2306 
2307 2308 2309 2328 2329 2330 2331 2332 2333 
2334 2335 2336 2337 2338 2339 2340 2341 2342 
2343 2344 2345 2364 2365 2366 2367 2368 2369 
2370 2371 2372 2373 2374 2375 2376 2377 2378 
2379 2380 2381 
POINT_DATA 541
FIELD FieldData 1
vtkOriginalPointIds 1 541 vtkIdType
13 18 21 22 23 24 25 38 39 
40 41 42 43 44 45 46 47 48 
49 62 63 64 65 66 67 68 69 
70 71 72 73 86 87 88 89 90 
91 92 93 94 95 96 97 110 111 
112 113 114 115 116 117 118 119 120 
121 134 135 136 137 138 139 140 141 
142 143 144 145 158 159 160 161 162 
163 164 165 166 167 168 169 182 183 
184 185 186 187 188 189 190 191 192 
193 215 217 218 219 229 230 231 232 
233 234 235 236 237 247 248 249 250 
251 252 253 254 255 265 266 267 268 
269 270 271 272 273 283 284 285 286 
287 288 289 290 291 301 302 303 304 
305 306 307 308 309 319 320 321 322 
323 324 325 326 327 337 338 339 340 
341 342 343 344 345 364 366 367 368 
369 379 380 381 382 383 384 385 386 
387 397 398 399 400 401 402 403 404 
405 415 416 417 418 419 420 421 422 
423 433 434 435 436 437 438 439 440 
441 451 452 453 454 455 456 457 458 
459 469 470 471 472 473 474 475 476 
477 487 488 489 490 491 492 493 494 
495 515 517 518 519 529 530 531 532 
533 534 535 536 537 547 548 549 550 
551 552 553 554 555 565 566 567 568 
569 570 571 572 573 583 584 585 586 
587 588 589 590 591 601 602 603 604 
605 606 607 608 609 619 620 621 622 
623 624 625 626 627 637 638 639 640 
641 642 643 644 645 664 666 667 668 
669 679 680 681 682 683 684 685 686 
687 697 698 699 700 701 702 703 704 
705 715 716 717 718 719 720 721 722 
723 733 734 735 736 737 738 739 740 
741 751 752 753 754 755 756 757 758 
759 769 770 771 772 773 774 775 776 
777 787 788 789 790 791 792 793 794 
795 815 817 818 819 829 830 831 832 
833 834 835 836 837 847 848 849 850 
851 852 853 854 855 865 866 867 868 
869 870 871 872 873 883 884 885 886 
887 888 889 890 891 901 902 903 904 
905 906 907 908 909 919 920 921 922 
923 924 925 926 927 937 938 939 940 
941 942 943 944 945 964 966 967 968 
969 979 980 981 982 983 984 985 986 
987 997 998 999 1000 1001 1002 1003 1004 
1005 1015 1016 1017 1018 1019 1020 1021 1022 
1023 1033 1034 1035 1036 1037 1038 1039 1040 
1041 1051 1052 1053 1054 1055 1056 1057 1058 
1059 1069 1070 1071 1072 1073 1074 1075 1076 
1077 1087 1088 1089 1090 1091 1092 1093 1094 
1095 1111 1112 1113 1120 1121 1122 1123 1124 
1125 1132 1133 1134 1135 1136 1137 1144 1145 
1146 1147 1148 1149 1156 1157 1158 1159 1160 
1161 1168 1169 1170 1171 1172 1173 1180 1181 
1182 1183 1184 1185 1192 1193 1194 1195 1196 
1197 
